File written on 12Dec2022 at 11:54:36 

calc_only_A  :  F

begin real_lattice
   3.2494497   0.0000000   0.0000000
  -1.6247249   2.8141060   0.0000000
   0.0000000   0.0000000   5.2057484
end real_lattice

begin recip_lattice
   1.9336152   1.1163733   0.0000000
   0.0000000   2.2327465   0.0000000
   0.0000000   0.0000000   1.2069706
end recip_lattice

begin kpoints
     8
    0.00000000    0.00000000    0.00000000
    0.00000000    0.00000000   -0.50000000
    0.00000000   -0.50000000    0.00000000
    0.00000000   -0.50000000   -0.50000000
   -0.50000000    0.00000000    0.00000000
   -0.50000000    0.00000000   -0.50000000
   -0.50000000   -0.50000000    0.00000000
   -0.50000000   -0.50000000   -0.50000000
end kpoints

begin projections
     2
   0.33330    0.66670    0.50000     0  1  1
    0.0000000  0.0000000  1.0000000   1.0000000  0.0000000  0.0000000    1.00
   0.66670    0.33330    0.00000     0  1  1
    0.0000000  0.0000000  1.0000000   1.0000000  0.0000000  0.0000000    1.00
end projections

begin nnkpts
   8
     1     2      0   0   0
     1     2      0   0   1
     1     3      0   0   0
     1     5      0   0   0
     1     5      1   0   0
     1     7      1   0   0
     1     3      0   1   0
     1     7      0   1   0
     2     1      0   0   0
     2     1      0   0  -1
     2     4      0   0   0
     2     6      0   0   0
     2     6      1   0   0
     2     8      1   0   0
     2     4      0   1   0
     2     8      0   1   0
     3     4      0   0   0
     3     4      0   0   1
     3     1      0   0   0
     3     5      0   0   0
     3     7      0   0   0
     3     7      1   0   0
     3     5      1  -1   0
     3     1      0  -1   0
     4     3      0   0   0
     4     3      0   0  -1
     4     2      0   0   0
     4     6      0   0   0
     4     8      0   0   0
     4     8      1   0   0
     4     6      1  -1   0
     4     2      0  -1   0
     5     6      0   0   0
     5     6      0   0   1
     5     1      0   0   0
     5     3      0   0   0
     5     7      0   0   0
     5     7      0   1   0
     5     3     -1   1   0
     5     1     -1   0   0
     6     5      0   0   0
     6     5      0   0  -1
     6     2      0   0   0
     6     4      0   0   0
     6     8      0   0   0
     6     8      0   1   0
     6     4     -1   1   0
     6     2     -1   0   0
     7     8      0   0   0
     7     8      0   0   1
     7     3      0   0   0
     7     5      0   0   0
     7     1      0  -1   0
     7     5      0  -1   0
     7     1     -1   0   0
     7     3     -1   0   0
     8     7      0   0   0
     8     7      0   0  -1
     8     4      0   0   0
     8     6      0   0   0
     8     2      0  -1   0
     8     6      0  -1   0
     8     2     -1   0   0
     8     4     -1   0   0
end nnkpts

begin exclude_bands
  50
   3
   4
   5
   6
   7
   8
   9
  10
  11
  12
  13
  14
  15
  16
  17
  18
  19
  20
  21
  22
  23
  24
  25
  26
  27
  28
  29
  30
  31
  32
  33
  34
  35
  36
  37
  38
  39
  40
  41
  42
  43
  44
  45
  46
  47
  48
  49
  50
  51
  52
end exclude_bands
