
     Program PROJWFC v.7.1 starts on 12Dec2022 at 12: 4:27 

     This program is part of the open-source Quantum ESPRESSO suite
     for quantum simulation of materials; please cite
         "P. Giannozzi et al., J. Phys.:Condens. Matter 21 395502 (2009);
         "P. Giannozzi et al., J. Phys.:Condens. Matter 29 465901 (2017);
         "P. Giannozzi et al., J. Chem. Phys. 152 154105 (2020);
          URL http://www.quantum-espresso.org", 
     in publications or presentations arising from this work. More details at
     http://www.quantum-espresso.org/quote

     Parallel version (MPI), running on    16 processors

     MPI processes distributed on     1 nodes
     R & G space division:  proc/nbgrp/npool/nimage =      16
     72042 MiB available memory on the printing compute node when the environment starts
 

     Reading xml data from directory:

     /scratch/elinscott/materials_cloud_archive/zno/TMP/kc_bands.save/

     IMPORTANT: XC functional enforced from input :
     Exchange-correlation= PW
                           (   1   4   0   0   0   0   0)
     Any further DFT definition will be discarded
     Please, verify this is what you really want

 
     Parallelization info
     --------------------
     sticks:   dense  smooth     PW     G-vecs:    dense   smooth      PW
     Min          31      31     10                  949      949     162
     Max          32      32     11                  958      958     166
     Sum         511     511    163                15291    15291    2623
 
     Using Slab Decomposition
 

     Check: negative core charge=   -0.000270

     Gaussian broadening (read from input): ngauss,degauss=   0    0.010000


     Calling projwave .... 
     Subspace diagonalization in iterative solution of the eigenvalue problem:
     a serial algorithm will be used

 
  Problem Sizes 
  natomwfc =           28
  nbnd     =           52
  nkstot   =          106
  npwx     =          126
  nkb      =           62
 

     Atomic states used for projection
     (read from pseudopotential files):

     state #   1: atom   1 (Zn ), wfc  1 (l=0 m= 1)
     state #   2: atom   1 (Zn ), wfc  2 (l=1 m= 1)
     state #   3: atom   1 (Zn ), wfc  2 (l=1 m= 2)
     state #   4: atom   1 (Zn ), wfc  2 (l=1 m= 3)
     state #   5: atom   1 (Zn ), wfc  3 (l=2 m= 1)
     state #   6: atom   1 (Zn ), wfc  3 (l=2 m= 2)
     state #   7: atom   1 (Zn ), wfc  3 (l=2 m= 3)
     state #   8: atom   1 (Zn ), wfc  3 (l=2 m= 4)
     state #   9: atom   1 (Zn ), wfc  3 (l=2 m= 5)
     state #  10: atom   1 (Zn ), wfc  4 (l=0 m= 1)
     state #  11: atom   2 (Zn ), wfc  1 (l=0 m= 1)
     state #  12: atom   2 (Zn ), wfc  2 (l=1 m= 1)
     state #  13: atom   2 (Zn ), wfc  2 (l=1 m= 2)
     state #  14: atom   2 (Zn ), wfc  2 (l=1 m= 3)
     state #  15: atom   2 (Zn ), wfc  3 (l=2 m= 1)
     state #  16: atom   2 (Zn ), wfc  3 (l=2 m= 2)
     state #  17: atom   2 (Zn ), wfc  3 (l=2 m= 3)
     state #  18: atom   2 (Zn ), wfc  3 (l=2 m= 4)
     state #  19: atom   2 (Zn ), wfc  3 (l=2 m= 5)
     state #  20: atom   2 (Zn ), wfc  4 (l=0 m= 1)
     state #  21: atom   3 (O  ), wfc  1 (l=0 m= 1)
     state #  22: atom   3 (O  ), wfc  2 (l=1 m= 1)
     state #  23: atom   3 (O  ), wfc  2 (l=1 m= 2)
     state #  24: atom   3 (O  ), wfc  2 (l=1 m= 3)
     state #  25: atom   4 (O  ), wfc  1 (l=0 m= 1)
     state #  26: atom   4 (O  ), wfc  2 (l=1 m= 1)
     state #  27: atom   4 (O  ), wfc  2 (l=1 m= 2)
     state #  28: atom   4 (O  ), wfc  2 (l=1 m= 3)

 k =   0.0000000000  0.0000000000  0.3121020699
==== e(   1) =  -115.91946 eV ==== 
     psi = 0.499*[#   1]+0.499*[#  11]
    |psi|^2 = 1.000
==== e(   2) =  -115.91946 eV ==== 
     psi = 0.499*[#   1]+0.499*[#  11]
    |psi|^2 = 1.000
==== e(   3) =   -69.60367 eV ==== 
     psi = 0.499*[#   2]+0.499*[#  12]
    |psi|^2 = 1.000
==== e(   4) =   -69.60367 eV ==== 
     psi = 0.499*[#   2]+0.499*[#  12]
    |psi|^2 = 1.000
==== e(   5) =   -69.53467 eV ==== 
     psi = 0.375*[#   3]+0.375*[#  13]+0.125*[#   4]+0.125*[#  14]
    |psi|^2 = 1.000
==== e(   6) =   -69.53467 eV ==== 
     psi = 0.375*[#   3]+0.375*[#  13]+0.125*[#   4]+0.125*[#  14]
    |psi|^2 = 1.000
==== e(   7) =   -69.53461 eV ==== 
     psi = 0.375*[#   4]+0.375*[#  14]+0.125*[#   3]+0.125*[#  13]
    |psi|^2 = 1.000
==== e(   8) =   -69.53461 eV ==== 
     psi = 0.375*[#   4]+0.375*[#  14]+0.125*[#   3]+0.125*[#  13]
    |psi|^2 = 1.000
==== e(   9) =    -8.20069 eV ==== 
     psi = 0.384*[#  21]+0.384*[#  25]+0.108*[#  10]+0.108*[#  20]+0.006*[#   5]
          +0.006*[#  15]
    |psi|^2 = 0.998
==== e(  10) =    -8.20069 eV ==== 
     psi = 0.384*[#  21]+0.384*[#  25]+0.108*[#  10]+0.108*[#  20]+0.006*[#   5]
          +0.006*[#  15]
    |psi|^2 = 0.998
==== e(  11) =     3.10758 eV ==== 
     psi = 0.306*[#   5]+0.306*[#  15]+0.152*[#  22]+0.152*[#  26]+0.037*[#  10]
          +0.037*[#  20]+0.003*[#  21]+0.003*[#  25]
    |psi|^2 = 0.996
==== e(  12) =     3.10758 eV ==== 
     psi = 0.306*[#   5]+0.306*[#  15]+0.152*[#  22]+0.152*[#  26]+0.037*[#  10]
          +0.037*[#  20]+0.003*[#  21]+0.003*[#  25]
    |psi|^2 = 0.996
==== e(  13) =     3.34157 eV ==== 
     psi = 0.236*[#   8]+0.236*[#  18]+0.083*[#  24]+0.083*[#  28]+0.079*[#   9]
          +0.079*[#  19]+0.056*[#   7]+0.056*[#  17]+0.028*[#  23]+0.028*[#  27]
          +0.019*[#   6]+0.019*[#  16]
    |psi|^2 = 0.999
==== e(  14) =     3.34157 eV ==== 
     psi = 0.236*[#   8]+0.236*[#  18]+0.083*[#  24]+0.083*[#  28]+0.079*[#   9]
          +0.079*[#  19]+0.056*[#   7]+0.056*[#  17]+0.028*[#  23]+0.028*[#  27]
          +0.019*[#   6]+0.019*[#  16]
    |psi|^2 = 0.999
==== e(  15) =     3.34225 eV ==== 
     psi = 0.236*[#   9]+0.236*[#  19]+0.083*[#  23]+0.083*[#  27]+0.079*[#   8]
          +0.079*[#  18]+0.056*[#   6]+0.056*[#  16]+0.028*[#  24]+0.028*[#  28]
          +0.019*[#   7]+0.019*[#  17]
    |psi|^2 = 0.999
==== e(  16) =     3.34225 eV ==== 
     psi = 0.236*[#   9]+0.236*[#  19]+0.083*[#  23]+0.083*[#  27]+0.079*[#   8]
          +0.079*[#  18]+0.056*[#   6]+0.056*[#  16]+0.028*[#  24]+0.028*[#  28]
          +0.019*[#   7]+0.019*[#  17]
    |psi|^2 = 0.999
==== e(  17) =     4.42546 eV ==== 
     psi = 0.303*[#   6]+0.303*[#  16]+0.101*[#   7]+0.101*[#  17]+0.071*[#   9]
          +0.071*[#  19]+0.024*[#   8]+0.024*[#  18]
    |psi|^2 = 0.999
==== e(  18) =     4.42546 eV ==== 
     psi = 0.303*[#   6]+0.303*[#  16]+0.101*[#   7]+0.101*[#  17]+0.071*[#   9]
          +0.071*[#  19]+0.024*[#   8]+0.024*[#  18]
    |psi|^2 = 0.999
==== e(  19) =     4.42552 eV ==== 
     psi = 0.303*[#   7]+0.303*[#  17]+0.101*[#   6]+0.101*[#  16]+0.072*[#   8]
          +0.072*[#  18]+0.024*[#   9]+0.024*[#  19]
    |psi|^2 = 0.999
==== e(  20) =     4.42552 eV ==== 
     psi = 0.303*[#   7]+0.303*[#  17]+0.101*[#   6]+0.101*[#  16]+0.072*[#   8]
          +0.072*[#  18]+0.024*[#   9]+0.024*[#  19]
    |psi|^2 = 0.999
==== e(  21) =     6.91770 eV ==== 
     psi = 0.209*[#  22]+0.209*[#  26]+0.186*[#   5]+0.186*[#  15]+0.057*[#  10]
          +0.057*[#  20]+0.038*[#  21]+0.038*[#  25]
    |psi|^2 = 0.982
==== e(  22) =     6.91770 eV ==== 
     psi = 0.209*[#  22]+0.209*[#  26]+0.186*[#   5]+0.186*[#  15]+0.057*[#  10]
          +0.057*[#  20]+0.038*[#  21]+0.038*[#  25]
    |psi|^2 = 0.982
==== e(  23) =     8.92464 eV ==== 
     psi = 0.286*[#  24]+0.286*[#  28]+0.095*[#  23]+0.095*[#  27]+0.067*[#   8]
          +0.067*[#  18]+0.022*[#   9]+0.022*[#  19]+0.016*[#   7]+0.016*[#  17]
          +0.005*[#   6]+0.005*[#  16]
    |psi|^2 = 0.985
==== e(  24) =     8.92464 eV ==== 
     psi = 0.286*[#  24]+0.286*[#  28]+0.095*[#  23]+0.095*[#  27]+0.067*[#   8]
          +0.067*[#  18]+0.022*[#   9]+0.022*[#  19]+0.016*[#   7]+0.016*[#  17]
          +0.005*[#   6]+0.005*[#  16]
    |psi|^2 = 0.985
==== e(  25) =     8.92533 eV ==== 
     psi = 0.286*[#  23]+0.286*[#  27]+0.095*[#  24]+0.095*[#  28]+0.067*[#   9]
          +0.067*[#  19]+0.022*[#   8]+0.022*[#  18]+0.016*[#   6]+0.016*[#  16]
          +0.005*[#   7]+0.005*[#  17]
    |psi|^2 = 0.985
==== e(  26) =     8.92533 eV ==== 
     psi = 0.286*[#  23]+0.286*[#  27]+0.095*[#  24]+0.095*[#  28]+0.067*[#   9]
          +0.067*[#  19]+0.022*[#   8]+0.022*[#  18]+0.016*[#   6]+0.016*[#  16]
          +0.005*[#   7]+0.005*[#  17]
    |psi|^2 = 0.985
==== e(  27) =    12.66230 eV ==== 
     psi = 0.289*[#  10]+0.289*[#  20]+0.118*[#  22]+0.118*[#  26]+0.072*[#  21]
          +0.072*[#  25]+0.002*[#   5]+0.002*[#  15]
    |psi|^2 = 0.961
==== e(  28) =    12.66230 eV ==== 
     psi = 0.289*[#  10]+0.289*[#  20]+0.118*[#  22]+0.118*[#  26]+0.072*[#  21]
          +0.072*[#  25]+0.002*[#   5]+0.002*[#  15]
    |psi|^2 = 0.961
==== e(  29) =    19.19603 eV ==== 
     psi = 0.016*[#  22]+0.016*[#  26]+0.005*[#  10]+0.005*[#  20]
    |psi|^2 = 0.044
==== e(  30) =    19.19603 eV ==== 
     psi = 0.016*[#  22]+0.016*[#  26]+0.005*[#  10]+0.005*[#  20]
    |psi|^2 = 0.044
==== e(  31) =    22.29629 eV ==== 
     psi = 0.002*[#  23]+0.002*[#  27]
    |psi|^2 = 0.007
==== e(  32) =    22.29629 eV ==== 
     psi = 0.002*[#  23]+0.002*[#  27]
    |psi|^2 = 0.007
==== e(  33) =    22.29855 eV ==== 
     psi = 0.002*[#  24]+0.002*[#  28]
    |psi|^2 = 0.007
==== e(  34) =    22.29855 eV ==== 
     psi = 0.002*[#  24]+0.002*[#  28]
    |psi|^2 = 0.007
==== e(  35) =    27.29950 eV ==== 
     psi = 0.002*[#  22]+0.002*[#  26]
    |psi|^2 = 0.006
==== e(  36) =    27.29950 eV ==== 
     psi = 0.002*[#  22]+0.002*[#  26]
    |psi|^2 = 0.006
==== e(  37) =    29.51680 eV ==== 
     psi = 0.001*[#  24]+0.001*[#  28]
    |psi|^2 = 0.004
==== e(  38) =    29.51680 eV ==== 
     psi = 0.001*[#  24]+0.001*[#  28]
    |psi|^2 = 0.004
==== e(  39) =    29.51833 eV ==== 
     psi = 0.001*[#  23]+0.001*[#  27]
    |psi|^2 = 0.004
==== e(  40) =    29.51833 eV ==== 
     psi = 0.001*[#  23]+0.001*[#  27]
    |psi|^2 = 0.004
==== e(  41) =    33.69523 eV ==== 
 
    |psi|^2 = 0.004
==== e(  42) =    33.69523 eV ==== 
 
    |psi|^2 = 0.004
==== e(  43) =    34.26886 eV ==== 
 
    |psi|^2 = 0.001
==== e(  44) =    34.26886 eV ==== 
 
    |psi|^2 = 0.001
==== e(  45) =    34.27015 eV ==== 
 
    |psi|^2 = 0.001
==== e(  46) =    34.27015 eV ==== 
 
    |psi|^2 = 0.001
==== e(  47) =    37.69886 eV ==== 
 
    |psi|^2 = 0.002
==== e(  48) =    37.69886 eV ==== 
 
    |psi|^2 = 0.002
==== e(  49) =    41.09716 eV ==== 
     psi = 0.001*[#  24]+0.001*[#  28]
    |psi|^2 = 0.004
==== e(  50) =    41.09716 eV ==== 
     psi = 0.001*[#  24]+0.001*[#  28]
    |psi|^2 = 0.004
==== e(  51) =    41.09844 eV ==== 
     psi = 0.001*[#  23]+0.001*[#  27]
    |psi|^2 = 0.004
==== e(  52) =    41.09844 eV ==== 
     psi = 0.001*[#  23]+0.001*[#  27]
    |psi|^2 = 0.004

 k =   0.0500000000  0.0288675135  0.3121020699
==== e(   1) =  -115.91947 eV ==== 
     psi = 0.499*[#   1]+0.499*[#  11]
    |psi|^2 = 1.000
==== e(   2) =  -115.91947 eV ==== 
     psi = 0.499*[#   1]+0.499*[#  11]
    |psi|^2 = 1.000
==== e(   3) =   -69.60097 eV ==== 
     psi = 0.495*[#   2]+0.495*[#  12]+0.003*[#   4]+0.003*[#  14]+0.002*[#   3]
          +0.002*[#  13]
    |psi|^2 = 1.000
==== e(   4) =   -69.60097 eV ==== 
     psi = 0.495*[#   2]+0.495*[#  12]+0.003*[#   4]+0.003*[#  14]+0.002*[#   3]
          +0.002*[#  13]
    |psi|^2 = 1.000
==== e(   5) =   -69.54490 eV ==== 
     psi = 0.315*[#   3]+0.315*[#  13]+0.184*[#   4]+0.184*[#  14]
    |psi|^2 = 1.000
==== e(   6) =   -69.54490 eV ==== 
     psi = 0.315*[#   3]+0.315*[#  13]+0.184*[#   4]+0.184*[#  14]
    |psi|^2 = 1.000
==== e(   7) =   -69.54362 eV ==== 
     psi = 0.313*[#   4]+0.313*[#  14]+0.183*[#   3]+0.183*[#  13]+0.004*[#   2]
          +0.004*[#  12]
    |psi|^2 = 1.000
==== e(   8) =   -69.54362 eV ==== 
     psi = 0.313*[#   4]+0.313*[#  14]+0.183*[#   3]+0.183*[#  13]+0.004*[#   2]
          +0.004*[#  12]
    |psi|^2 = 1.000
==== e(   9) =    -8.18974 eV ==== 
     psi = 0.385*[#  21]+0.385*[#  25]+0.107*[#  10]+0.107*[#  20]+0.006*[#   5]
          +0.006*[#  15]
    |psi|^2 = 0.998
==== e(  10) =    -8.18974 eV ==== 
     psi = 0.385*[#  21]+0.385*[#  25]+0.107*[#  10]+0.107*[#  20]+0.006*[#   5]
          +0.006*[#  15]
    |psi|^2 = 0.998
==== e(  11) =     3.09110 eV ==== 
     psi = 0.277*[#   5]+0.277*[#  15]+0.141*[#  22]+0.141*[#  26]+0.038*[#  10]
          +0.038*[#  20]+0.011*[#   8]+0.011*[#  18]+0.007*[#   7]+0.007*[#  17]
          +0.007*[#   9]+0.007*[#  19]+0.006*[#  24]+0.006*[#  28]+0.004*[#   6]
          +0.004*[#  16]+0.004*[#  23]+0.004*[#  27]+0.003*[#  21]+0.003*[#  25]
          
    |psi|^2 = 0.997
==== e(  12) =     3.09110 eV ==== 
     psi = 0.277*[#   5]+0.277*[#  15]+0.141*[#  22]+0.141*[#  26]+0.038*[#  10]
          +0.038*[#  20]+0.011*[#   8]+0.011*[#  18]+0.007*[#   7]+0.007*[#  17]
          +0.007*[#   9]+0.007*[#  19]+0.006*[#  24]+0.006*[#  28]+0.004*[#   6]
          +0.004*[#  16]+0.004*[#  23]+0.004*[#  27]+0.003*[#  21]+0.003*[#  25]
          
    |psi|^2 = 0.997
==== e(  13) =     3.33537 eV ==== 
     psi = 0.168*[#   8]+0.168*[#  18]+0.144*[#   9]+0.144*[#  19]+0.059*[#  24]
          +0.059*[#  28]+0.050*[#  23]+0.050*[#  27]+0.038*[#   7]+0.038*[#  17]
          +0.034*[#   6]+0.034*[#  16]+0.004*[#   5]+0.004*[#  15]+0.001*[#  22]
          +0.001*[#  26]
    |psi|^2 = 0.999
==== e(  14) =     3.33537 eV ==== 
     psi = 0.168*[#   8]+0.168*[#  18]+0.144*[#   9]+0.144*[#  19]+0.059*[#  24]
          +0.059*[#  28]+0.050*[#  23]+0.050*[#  27]+0.038*[#   7]+0.038*[#  17]
          +0.034*[#   6]+0.034*[#  16]+0.004*[#   5]+0.004*[#  15]+0.001*[#  22]
          +0.001*[#  26]
    |psi|^2 = 0.999
==== e(  15) =     3.33624 eV ==== 
     psi = 0.164*[#   9]+0.164*[#  19]+0.135*[#   8]+0.135*[#  18]+0.056*[#  23]
          +0.056*[#  27]+0.046*[#  24]+0.046*[#  28]+0.035*[#   6]+0.035*[#  16]
          +0.028*[#   7]+0.028*[#  17]+0.026*[#   5]+0.026*[#  15]+0.008*[#  22]
          +0.008*[#  26]
    |psi|^2 = 0.998
==== e(  16) =     3.33624 eV ==== 
     psi = 0.164*[#   9]+0.164*[#  19]+0.135*[#   8]+0.135*[#  18]+0.056*[#  23]
          +0.056*[#  27]+0.046*[#  24]+0.046*[#  28]+0.035*[#   6]+0.035*[#  16]
          +0.028*[#   7]+0.028*[#  17]+0.026*[#   5]+0.026*[#  15]+0.008*[#  22]
          +0.008*[#  26]
    |psi|^2 = 0.998
==== e(  17) =     4.41777 eV ==== 
     psi = 0.253*[#   6]+0.253*[#  16]+0.151*[#   7]+0.151*[#  17]+0.060*[#   9]
          +0.060*[#  19]+0.036*[#   8]+0.036*[#  18]
    |psi|^2 = 1.000
==== e(  18) =     4.41777 eV ==== 
     psi = 0.253*[#   6]+0.253*[#  16]+0.151*[#   7]+0.151*[#  17]+0.060*[#   9]
          +0.060*[#  19]+0.036*[#   8]+0.036*[#  18]
    |psi|^2 = 1.000
==== e(  19) =     4.43467 eV ==== 
     psi = 0.252*[#   7]+0.252*[#  17]+0.151*[#   6]+0.151*[#  16]+0.059*[#   8]
          +0.059*[#  18]+0.035*[#   9]+0.035*[#  19]+0.002*[#   5]+0.002*[#  15]
          
    |psi|^2 = 0.999
==== e(  20) =     4.43467 eV ==== 
     psi = 0.252*[#   7]+0.252*[#  17]+0.151*[#   6]+0.151*[#  16]+0.059*[#   8]
          +0.059*[#  18]+0.035*[#   9]+0.035*[#  19]+0.002*[#   5]+0.002*[#  15]
          
    |psi|^2 = 0.999
==== e(  21) =     6.91143 eV ==== 
     psi = 0.208*[#  22]+0.208*[#  26]+0.181*[#   5]+0.181*[#  15]+0.058*[#  10]
          +0.058*[#  20]+0.038*[#  21]+0.038*[#  25]+0.002*[#   8]+0.002*[#  18]
          +0.001*[#   9]+0.001*[#  19]
    |psi|^2 = 0.982
==== e(  22) =     6.91143 eV ==== 
     psi = 0.208*[#  22]+0.208*[#  26]+0.181*[#   5]+0.181*[#  15]+0.058*[#  10]
          +0.058*[#  20]+0.038*[#  21]+0.038*[#  25]+0.002*[#   8]+0.002*[#  18]
          +0.001*[#   9]+0.001*[#  19]
    |psi|^2 = 0.982
==== e(  23) =     8.83945 eV ==== 
     psi = 0.234*[#  24]+0.234*[#  28]+0.139*[#  23]+0.139*[#  27]+0.055*[#   8]
          +0.055*[#  18]+0.033*[#   9]+0.033*[#  19]+0.014*[#   7]+0.014*[#  17]
          +0.008*[#   6]+0.008*[#  16]+0.007*[#  22]+0.007*[#  26]+0.001*[#   5]
          +0.001*[#  15]+0.001*[#  10]+0.001*[#  20]
    |psi|^2 = 0.983
==== e(  24) =     8.83945 eV ==== 
     psi = 0.234*[#  24]+0.234*[#  28]+0.139*[#  23]+0.139*[#  27]+0.055*[#   8]
          +0.055*[#  18]+0.033*[#   9]+0.033*[#  19]+0.014*[#   7]+0.014*[#  17]
          +0.008*[#   6]+0.008*[#  16]+0.007*[#  22]+0.007*[#  26]+0.001*[#   5]
          +0.001*[#  15]+0.001*[#  10]+0.001*[#  20]
    |psi|^2 = 0.983
==== e(  25) =     8.88833 eV ==== 
     psi = 0.240*[#  23]+0.240*[#  27]+0.142*[#  24]+0.142*[#  28]+0.055*[#   9]
          +0.055*[#  19]+0.033*[#   8]+0.033*[#  18]+0.014*[#   6]+0.014*[#  16]
          +0.008*[#   7]+0.008*[#  17]
    |psi|^2 = 0.985
==== e(  26) =     8.88833 eV ==== 
     psi = 0.240*[#  23]+0.240*[#  27]+0.142*[#  24]+0.142*[#  28]+0.055*[#   9]
          +0.055*[#  19]+0.033*[#   8]+0.033*[#  18]+0.014*[#   6]+0.014*[#  16]
          +0.008*[#   7]+0.008*[#  17]
    |psi|^2 = 0.985
==== e(  27) =    12.74671 eV ==== 
     psi = 0.288*[#  10]+0.288*[#  20]+0.114*[#  22]+0.114*[#  26]+0.070*[#  21]
          +0.070*[#  25]+0.004*[#  24]+0.004*[#  28]+0.002*[#  23]+0.002*[#  27]
          +0.002*[#   5]+0.002*[#  15]
    |psi|^2 = 0.961
==== e(  28) =    12.74671 eV ==== 
     psi = 0.288*[#  10]+0.288*[#  20]+0.114*[#  22]+0.114*[#  26]+0.070*[#  21]
          +0.070*[#  25]+0.004*[#  24]+0.004*[#  28]+0.002*[#  23]+0.002*[#  27]
          +0.002*[#   5]+0.002*[#  15]
    |psi|^2 = 0.961
==== e(  29) =    19.19038 eV ==== 
     psi = 0.015*[#  22]+0.015*[#  26]+0.004*[#  10]+0.004*[#  20]
    |psi|^2 = 0.043
==== e(  30) =    19.19038 eV ==== 
     psi = 0.015*[#  22]+0.015*[#  26]+0.004*[#  10]+0.004*[#  20]
    |psi|^2 = 0.043
==== e(  31) =    22.10264 eV ==== 
     psi = 0.002*[#  24]+0.002*[#  28]+0.001*[#  23]+0.001*[#  27]
    |psi|^2 = 0.010
==== e(  32) =    22.10264 eV ==== 
     psi = 0.002*[#  24]+0.002*[#  28]+0.001*[#  23]+0.001*[#  27]
    |psi|^2 = 0.010
==== e(  33) =    22.31877 eV ==== 
     psi = 0.002*[#  23]+0.002*[#  27]+0.001*[#  24]+0.001*[#  28]
    |psi|^2 = 0.008
==== e(  34) =    22.31877 eV ==== 
     psi = 0.002*[#  23]+0.002*[#  27]+0.001*[#  24]+0.001*[#  28]
    |psi|^2 = 0.008
==== e(  35) =    27.43234 eV ==== 
     psi = 0.001*[#  22]+0.001*[#  26]
    |psi|^2 = 0.005
==== e(  36) =    27.43234 eV ==== 
     psi = 0.001*[#  22]+0.001*[#  26]
    |psi|^2 = 0.005
==== e(  37) =    29.51621 eV ==== 
     psi = 0.001*[#  24]+0.001*[#  28]
    |psi|^2 = 0.004
==== e(  38) =    29.51621 eV ==== 
     psi = 0.001*[#  24]+0.001*[#  28]
    |psi|^2 = 0.004
==== e(  39) =    29.51766 eV ==== 
     psi = 0.001*[#  23]+0.001*[#  27]
    |psi|^2 = 0.004
==== e(  40) =    29.51766 eV ==== 
     psi = 0.001*[#  23]+0.001*[#  27]
    |psi|^2 = 0.004
==== e(  41) =    33.31021 eV ==== 
 
    |psi|^2 = 0.003
==== e(  42) =    33.31021 eV ==== 
 
    |psi|^2 = 0.003
==== e(  43) =    34.35492 eV ==== 
 
    |psi|^2 = 0.001
==== e(  44) =    34.35492 eV ==== 
 
    |psi|^2 = 0.001
==== e(  45) =    34.77948 eV ==== 
 
    |psi|^2 = 0.002
==== e(  46) =    34.77948 eV ==== 
 
    |psi|^2 = 0.002
==== e(  47) =    37.89159 eV ==== 
 
    |psi|^2 = 0.002
==== e(  48) =    37.89159 eV ==== 
 
    |psi|^2 = 0.002
==== e(  49) =    40.97756 eV ==== 
     psi = 0.001*[#  24]+0.001*[#  28]
    |psi|^2 = 0.004
==== e(  50) =    40.97756 eV ==== 
     psi = 0.001*[#  24]+0.001*[#  28]
    |psi|^2 = 0.004
==== e(  51) =    41.10532 eV ==== 
     psi = 0.001*[#  23]+0.001*[#  27]
    |psi|^2 = 0.004
==== e(  52) =    41.10532 eV ==== 
     psi = 0.001*[#  23]+0.001*[#  27]
    |psi|^2 = 0.004

 k =   0.1000000000  0.0577350269  0.3121020699
==== e(   1) =  -115.91944 eV ==== 
     psi = 0.499*[#   1]+0.499*[#  11]
    |psi|^2 = 1.000
==== e(   2) =  -115.91944 eV ==== 
     psi = 0.499*[#   1]+0.499*[#  11]
    |psi|^2 = 1.000
==== e(   3) =   -69.58931 eV ==== 
     psi = 0.499*[#   2]+0.499*[#  12]
    |psi|^2 = 1.000
==== e(   4) =   -69.58931 eV ==== 
     psi = 0.499*[#   2]+0.499*[#  12]
    |psi|^2 = 1.000
==== e(   5) =   -69.54114 eV ==== 
     psi = 0.319*[#   3]+0.319*[#  13]+0.181*[#   4]+0.181*[#  14]
    |psi|^2 = 1.000
==== e(   6) =   -69.54114 eV ==== 
     psi = 0.319*[#   3]+0.319*[#  13]+0.181*[#   4]+0.181*[#  14]
    |psi|^2 = 1.000
==== e(   7) =   -69.54034 eV ==== 
     psi = 0.319*[#   4]+0.319*[#  14]+0.180*[#   3]+0.180*[#  13]
    |psi|^2 = 1.000
==== e(   8) =   -69.54034 eV ==== 
     psi = 0.319*[#   4]+0.319*[#  14]+0.180*[#   3]+0.180*[#  13]
    |psi|^2 = 1.000
==== e(   9) =    -8.15731 eV ==== 
     psi = 0.389*[#  21]+0.389*[#  25]+0.102*[#  10]+0.102*[#  20]+0.006*[#   5]
          +0.006*[#  15]
    |psi|^2 = 0.998
==== e(  10) =    -8.15731 eV ==== 
     psi = 0.389*[#  21]+0.389*[#  25]+0.102*[#  10]+0.102*[#  20]+0.006*[#   5]
          +0.006*[#  15]
    |psi|^2 = 0.998
==== e(  11) =     3.07477 eV ==== 
     psi = 0.215*[#   5]+0.215*[#  15]+0.120*[#  22]+0.120*[#  26]+0.040*[#  10]
          +0.040*[#  20]+0.035*[#   8]+0.035*[#  18]+0.021*[#   9]+0.021*[#  19]
          +0.020*[#   7]+0.020*[#  17]+0.019*[#  24]+0.019*[#  28]+0.012*[#   6]
          +0.012*[#  16]+0.012*[#  23]+0.012*[#  27]+0.003*[#  21]+0.003*[#  25]
          
    |psi|^2 = 0.997
==== e(  12) =     3.07477 eV ==== 
     psi = 0.215*[#   5]+0.215*[#  15]+0.120*[#  22]+0.120*[#  26]+0.040*[#  10]
          +0.040*[#  20]+0.035*[#   8]+0.035*[#  18]+0.021*[#   9]+0.021*[#  19]
          +0.020*[#   7]+0.020*[#  17]+0.019*[#  24]+0.019*[#  28]+0.012*[#   6]
          +0.012*[#  16]+0.012*[#  23]+0.012*[#  27]+0.003*[#  21]+0.003*[#  25]
          
    |psi|^2 = 0.997
==== e(  13) =     3.35896 eV ==== 
     psi = 0.161*[#   8]+0.161*[#  18]+0.093*[#   9]+0.093*[#  19]+0.092*[#   5]
          +0.092*[#  15]+0.053*[#  24]+0.053*[#  28]+0.031*[#  23]+0.031*[#  27]
          +0.028*[#  22]+0.028*[#  26]+0.025*[#   7]+0.025*[#  17]+0.014*[#   6]
          +0.014*[#  16]
    |psi|^2 = 0.998
==== e(  14) =     3.35896 eV ==== 
     psi = 0.161*[#   8]+0.161*[#  18]+0.093*[#   9]+0.093*[#  19]+0.092*[#   5]
          +0.092*[#  15]+0.053*[#  24]+0.053*[#  28]+0.031*[#  23]+0.031*[#  27]
          +0.028*[#  22]+0.028*[#  26]+0.025*[#   7]+0.025*[#  17]+0.014*[#   6]
          +0.014*[#  16]
    |psi|^2 = 0.998
==== e(  15) =     3.37185 eV ==== 
     psi = 0.193*[#   9]+0.193*[#  19]+0.113*[#   8]+0.113*[#  18]+0.070*[#  23]
          +0.070*[#  27]+0.052*[#   6]+0.052*[#  16]+0.041*[#  24]+0.041*[#  28]
          +0.031*[#   7]+0.031*[#  17]
    |psi|^2 = 0.999
==== e(  16) =     3.37185 eV ==== 
     psi = 0.193*[#   9]+0.193*[#  19]+0.113*[#   8]+0.113*[#  18]+0.070*[#  23]
          +0.070*[#  27]+0.052*[#   6]+0.052*[#  16]+0.041*[#  24]+0.041*[#  28]
          +0.031*[#   7]+0.031*[#  17]
    |psi|^2 = 0.999
==== e(  17) =     4.43405 eV ==== 
     psi = 0.246*[#   6]+0.246*[#  16]+0.147*[#   7]+0.147*[#  17]+0.067*[#   9]
          +0.067*[#  19]+0.040*[#   8]+0.040*[#  18]
    |psi|^2 = 0.999
==== e(  18) =     4.43405 eV ==== 
     psi = 0.246*[#   6]+0.246*[#  16]+0.147*[#   7]+0.147*[#  17]+0.067*[#   9]
          +0.067*[#  19]+0.040*[#   8]+0.040*[#  18]
    |psi|^2 = 0.999
==== e(  19) =     4.45877 eV ==== 
     psi = 0.250*[#   7]+0.250*[#  17]+0.150*[#   6]+0.150*[#  16]+0.056*[#   8]
          +0.056*[#  18]+0.034*[#   9]+0.034*[#  19]+0.008*[#   5]+0.008*[#  15]
          
    |psi|^2 = 0.999
==== e(  20) =     4.45877 eV ==== 
     psi = 0.250*[#   7]+0.250*[#  17]+0.150*[#   6]+0.150*[#  16]+0.056*[#   8]
          +0.056*[#  18]+0.034*[#   9]+0.034*[#  19]+0.008*[#   5]+0.008*[#  15]
          
    |psi|^2 = 0.999
==== e(  21) =     6.90818 eV ==== 
     psi = 0.200*[#  22]+0.200*[#  26]+0.171*[#   5]+0.171*[#  15]+0.058*[#  10]
          +0.058*[#  20]+0.038*[#  21]+0.038*[#  25]+0.008*[#   8]+0.008*[#  18]
          +0.005*[#   9]+0.005*[#  19]+0.004*[#  24]+0.004*[#  28]+0.004*[#   7]
          +0.004*[#  17]+0.002*[#  23]+0.002*[#  27]+0.002*[#   6]+0.002*[#  16]
          
    |psi|^2 = 0.984
==== e(  22) =     6.90818 eV ==== 
     psi = 0.200*[#  22]+0.200*[#  26]+0.171*[#   5]+0.171*[#  15]+0.058*[#  10]
          +0.058*[#  20]+0.038*[#  21]+0.038*[#  25]+0.008*[#   8]+0.008*[#  18]
          +0.005*[#   9]+0.005*[#  19]+0.004*[#  24]+0.004*[#  28]+0.004*[#   7]
          +0.004*[#  17]+0.002*[#  23]+0.002*[#  27]+0.002*[#   6]+0.002*[#  16]
          
    |psi|^2 = 0.984
==== e(  23) =     8.63861 eV ==== 
     psi = 0.217*[#  24]+0.217*[#  28]+0.130*[#  23]+0.130*[#  27]+0.053*[#   8]
          +0.053*[#  18]+0.032*[#   9]+0.032*[#  19]+0.026*[#  22]+0.026*[#  26]
          +0.013*[#   7]+0.013*[#  17]+0.008*[#   6]+0.008*[#  16]+0.006*[#   5]
          +0.006*[#  15]+0.003*[#  10]+0.003*[#  20]+0.001*[#  21]+0.001*[#  25]
          
    |psi|^2 = 0.977
==== e(  24) =     8.63861 eV ==== 
     psi = 0.217*[#  24]+0.217*[#  28]+0.130*[#  23]+0.130*[#  27]+0.053*[#   8]
          +0.053*[#  18]+0.032*[#   9]+0.032*[#  19]+0.026*[#  22]+0.026*[#  26]
          +0.013*[#   7]+0.013*[#  17]+0.008*[#   6]+0.008*[#  16]+0.006*[#   5]
          +0.006*[#  15]+0.003*[#  10]+0.003*[#  20]+0.001*[#  21]+0.001*[#  25]
          
    |psi|^2 = 0.977
==== e(  25) =     8.81392 eV ==== 
     psi = 0.238*[#  23]+0.238*[#  27]+0.143*[#  24]+0.143*[#  28]+0.054*[#   9]
          +0.054*[#  19]+0.032*[#   8]+0.032*[#  18]+0.015*[#   6]+0.015*[#  16]
          +0.009*[#   7]+0.009*[#  17]
    |psi|^2 = 0.983
==== e(  26) =     8.81392 eV ==== 
     psi = 0.238*[#  23]+0.238*[#  27]+0.143*[#  24]+0.143*[#  28]+0.054*[#   9]
          +0.054*[#  19]+0.032*[#   8]+0.032*[#  18]+0.015*[#   6]+0.015*[#  16]
          +0.009*[#   7]+0.009*[#  17]
    |psi|^2 = 0.983
==== e(  27) =    12.97643 eV ==== 
     psi = 0.287*[#  10]+0.287*[#  20]+0.105*[#  22]+0.105*[#  26]+0.065*[#  21]
          +0.065*[#  25]+0.013*[#  24]+0.013*[#  28]+0.008*[#  23]+0.008*[#  27]
          +0.001*[#   5]+0.001*[#  15]
    |psi|^2 = 0.959
==== e(  28) =    12.97643 eV ==== 
     psi = 0.287*[#  10]+0.287*[#  20]+0.105*[#  22]+0.105*[#  26]+0.065*[#  21]
          +0.065*[#  25]+0.013*[#  24]+0.013*[#  28]+0.008*[#  23]+0.008*[#  27]
          +0.001*[#   5]+0.001*[#  15]
    |psi|^2 = 0.959
==== e(  29) =    19.16372 eV ==== 
     psi = 0.012*[#  22]+0.012*[#  26]+0.004*[#  10]+0.004*[#  20]+0.002*[#  24]
          +0.002*[#  28]
    |psi|^2 = 0.041
==== e(  30) =    19.16372 eV ==== 
     psi = 0.012*[#  22]+0.012*[#  26]+0.004*[#  10]+0.004*[#  20]+0.002*[#  24]
          +0.002*[#  28]
    |psi|^2 = 0.041
==== e(  31) =    21.66191 eV ==== 
     psi = 0.003*[#  22]+0.003*[#  26]+0.002*[#  24]+0.002*[#  28]+0.002*[#  10]
          +0.002*[#  20]+0.001*[#  23]+0.001*[#  27]
    |psi|^2 = 0.020
==== e(  32) =    21.66191 eV ==== 
     psi = 0.003*[#  22]+0.003*[#  26]+0.002*[#  24]+0.002*[#  28]+0.002*[#  10]
          +0.002*[#  20]+0.001*[#  23]+0.001*[#  27]
    |psi|^2 = 0.020
==== e(  33) =    22.39207 eV ==== 
     psi = 0.003*[#  23]+0.003*[#  27]+0.002*[#  24]+0.002*[#  28]
    |psi|^2 = 0.010
==== e(  34) =    22.39207 eV ==== 
     psi = 0.003*[#  23]+0.003*[#  27]+0.002*[#  24]+0.002*[#  28]
    |psi|^2 = 0.010
==== e(  35) =    27.49882 eV ==== 
 
    |psi|^2 = 0.004
==== e(  36) =    27.49882 eV ==== 
 
    |psi|^2 = 0.004
==== e(  37) =    29.54604 eV ==== 
 
    |psi|^2 = 0.003
==== e(  38) =    29.54604 eV ==== 
 
    |psi|^2 = 0.003
==== e(  39) =    29.80807 eV ==== 
 
    |psi|^2 = 0.003
==== e(  40) =    29.80807 eV ==== 
 
    |psi|^2 = 0.003
==== e(  41) =    32.87431 eV ==== 
 
    |psi|^2 = 0.003
==== e(  42) =    32.87431 eV ==== 
 
    |psi|^2 = 0.003
==== e(  43) =    34.61528 eV ==== 
 
    |psi|^2 = 0.001
==== e(  44) =    34.61528 eV ==== 
 
    |psi|^2 = 0.001
==== e(  45) =    35.55540 eV ==== 
 
    |psi|^2 = 0.003
==== e(  46) =    35.55540 eV ==== 
 
    |psi|^2 = 0.003
==== e(  47) =    38.39266 eV ==== 
 
    |psi|^2 = 0.002
==== e(  48) =    38.39266 eV ==== 
 
    |psi|^2 = 0.002
==== e(  49) =    40.72172 eV ==== 
 
    |psi|^2 = 0.003
==== e(  50) =    40.72172 eV ==== 
 
    |psi|^2 = 0.003
==== e(  51) =    41.15039 eV ==== 
     psi = 0.001*[#  23]+0.001*[#  27]
    |psi|^2 = 0.004
==== e(  52) =    41.15039 eV ==== 
     psi = 0.001*[#  23]+0.001*[#  27]
    |psi|^2 = 0.004

 k =   0.1500000000  0.0866025404  0.3121020699
==== e(   1) =  -115.91947 eV ==== 
     psi = 0.499*[#   1]+0.499*[#  11]
    |psi|^2 = 1.000
==== e(   2) =  -115.91947 eV ==== 
     psi = 0.499*[#   1]+0.499*[#  11]
    |psi|^2 = 1.000
==== e(   3) =   -69.59457 eV ==== 
     psi = 0.454*[#   2]+0.454*[#  12]+0.028*[#   4]+0.028*[#  14]+0.017*[#   3]
          +0.017*[#  13]
    |psi|^2 = 1.000
==== e(   4) =   -69.59457 eV ==== 
     psi = 0.454*[#   2]+0.454*[#  12]+0.028*[#   4]+0.028*[#  14]+0.017*[#   3]
          +0.017*[#  13]
    |psi|^2 = 1.000
==== e(   5) =   -69.56905 eV ==== 
     psi = 0.284*[#   4]+0.284*[#  14]+0.170*[#   3]+0.170*[#  13]+0.045*[#   2]
          +0.045*[#  12]
    |psi|^2 = 1.000
==== e(   6) =   -69.56905 eV ==== 
     psi = 0.284*[#   4]+0.284*[#  14]+0.170*[#   3]+0.170*[#  13]+0.045*[#   2]
          +0.045*[#  12]
    |psi|^2 = 1.000
==== e(   7) =   -69.55794 eV ==== 
     psi = 0.312*[#   3]+0.312*[#  13]+0.188*[#   4]+0.188*[#  14]
    |psi|^2 = 1.000
==== e(   8) =   -69.55794 eV ==== 
     psi = 0.312*[#   3]+0.312*[#  13]+0.188*[#   4]+0.188*[#  14]
    |psi|^2 = 1.000
==== e(   9) =    -8.10705 eV ==== 
     psi = 0.396*[#  21]+0.396*[#  25]+0.094*[#  10]+0.094*[#  20]+0.005*[#   5]
          +0.005*[#  15]
    |psi|^2 = 0.998
==== e(  10) =    -8.10705 eV ==== 
     psi = 0.396*[#  21]+0.396*[#  25]+0.094*[#  10]+0.094*[#  20]+0.005*[#   5]
          +0.005*[#  15]
    |psi|^2 = 0.998
==== e(  11) =     3.02728 eV ==== 
     psi = 0.143*[#   5]+0.143*[#  15]+0.095*[#  22]+0.095*[#  26]+0.063*[#   8]
          +0.063*[#  18]+0.043*[#  10]+0.043*[#  20]+0.038*[#   9]+0.038*[#  19]
          +0.036*[#  24]+0.036*[#  28]+0.035*[#   7]+0.035*[#  17]+0.021*[#  23]
          +0.021*[#  27]+0.021*[#   6]+0.021*[#  16]+0.003*[#  21]+0.003*[#  25]
          
    |psi|^2 = 0.998
==== e(  12) =     3.02728 eV ==== 
     psi = 0.143*[#   5]+0.143*[#  15]+0.095*[#  22]+0.095*[#  26]+0.063*[#   8]
          +0.063*[#  18]+0.043*[#  10]+0.043*[#  20]+0.038*[#   9]+0.038*[#  19]
          +0.036*[#  24]+0.036*[#  28]+0.035*[#   7]+0.035*[#  17]+0.021*[#  23]
          +0.021*[#  27]+0.021*[#   6]+0.021*[#  16]+0.003*[#  21]+0.003*[#  25]
          
    |psi|^2 = 0.998
==== e(  13) =     3.37172 eV ==== 
     psi = 0.148*[#   9]+0.148*[#  19]+0.142*[#   8]+0.142*[#  18]+0.053*[#  23]
          +0.053*[#  27]+0.050*[#  24]+0.050*[#  28]+0.045*[#   6]+0.045*[#  16]
          +0.034*[#   7]+0.034*[#  17]+0.021*[#   5]+0.021*[#  15]+0.006*[#  22]
          +0.006*[#  26]
    |psi|^2 = 0.998
==== e(  14) =     3.37172 eV ==== 
     psi = 0.148*[#   9]+0.148*[#  19]+0.142*[#   8]+0.142*[#  18]+0.053*[#  23]
          +0.053*[#  27]+0.050*[#  24]+0.050*[#  28]+0.045*[#   6]+0.045*[#  16]
          +0.034*[#   7]+0.034*[#  17]+0.021*[#   5]+0.021*[#  15]+0.006*[#  22]
          +0.006*[#  26]
    |psi|^2 = 0.998
==== e(  15) =     3.37236 eV ==== 
     psi = 0.146*[#   5]+0.146*[#  15]+0.115*[#   9]+0.115*[#  19]+0.094*[#   8]
          +0.094*[#  18]+0.043*[#  22]+0.043*[#  26]+0.039*[#  23]+0.039*[#  27]
          +0.029*[#  24]+0.029*[#  28]+0.018*[#   6]+0.018*[#  16]+0.013*[#   7]
          +0.013*[#  17]+0.002*[#  10]+0.002*[#  20]
    |psi|^2 = 0.998
==== e(  16) =     3.37236 eV ==== 
     psi = 0.146*[#   5]+0.146*[#  15]+0.115*[#   9]+0.115*[#  19]+0.094*[#   8]
          +0.094*[#  18]+0.043*[#  22]+0.043*[#  26]+0.039*[#  23]+0.039*[#  27]
          +0.029*[#  24]+0.029*[#  28]+0.018*[#   6]+0.018*[#  16]+0.013*[#   7]
          +0.013*[#  17]+0.002*[#  10]+0.002*[#  20]
    |psi|^2 = 0.998
==== e(  17) =     4.42377 eV ==== 
     psi = 0.241*[#   6]+0.241*[#  16]+0.144*[#   7]+0.144*[#  17]+0.071*[#   9]
          +0.071*[#  19]+0.043*[#   8]+0.043*[#  18]
    |psi|^2 = 0.999
==== e(  18) =     4.42377 eV ==== 
     psi = 0.241*[#   6]+0.241*[#  16]+0.144*[#   7]+0.144*[#  17]+0.071*[#   9]
          +0.071*[#  19]+0.043*[#   8]+0.043*[#  18]
    |psi|^2 = 0.999
==== e(  19) =     4.44701 eV ==== 
     psi = 0.242*[#   7]+0.242*[#  17]+0.145*[#   6]+0.145*[#  16]+0.059*[#   8]
          +0.059*[#  18]+0.035*[#   9]+0.035*[#  19]+0.016*[#   5]+0.016*[#  15]
          
    |psi|^2 = 0.999
==== e(  20) =     4.44701 eV ==== 
     psi = 0.242*[#   7]+0.242*[#  17]+0.145*[#   6]+0.145*[#  16]+0.059*[#   8]
          +0.059*[#  18]+0.035*[#   9]+0.035*[#  19]+0.016*[#   5]+0.016*[#  15]
          
    |psi|^2 = 0.999
==== e(  21) =     6.84709 eV ==== 
     psi = 0.182*[#  22]+0.182*[#  26]+0.150*[#   5]+0.150*[#  15]+0.058*[#  10]
          +0.058*[#  20]+0.037*[#  21]+0.037*[#  25]+0.018*[#   8]+0.018*[#  18]
          +0.014*[#  24]+0.014*[#  28]+0.011*[#   9]+0.011*[#  19]+0.009*[#   7]
          +0.009*[#  17]+0.008*[#  23]+0.008*[#  27]+0.005*[#   6]+0.005*[#  16]
          
    |psi|^2 = 0.986
==== e(  22) =     6.84709 eV ==== 
     psi = 0.182*[#  22]+0.182*[#  26]+0.150*[#   5]+0.150*[#  15]+0.058*[#  10]
          +0.058*[#  20]+0.037*[#  21]+0.037*[#  25]+0.018*[#   8]+0.018*[#  18]
          +0.014*[#  24]+0.014*[#  28]+0.011*[#   9]+0.011*[#  19]+0.009*[#   7]
          +0.009*[#  17]+0.008*[#  23]+0.008*[#  27]+0.005*[#   6]+0.005*[#  16]
          
    |psi|^2 = 0.986
==== e(  23) =     8.34890 eV ==== 
     psi = 0.193*[#  24]+0.193*[#  28]+0.116*[#  23]+0.116*[#  27]+0.061*[#  22]
          +0.061*[#  26]+0.048*[#   8]+0.048*[#  18]+0.029*[#   9]+0.029*[#  19]
          +0.017*[#   5]+0.017*[#  15]+0.012*[#   7]+0.012*[#  17]+0.007*[#   6]
          +0.007*[#  16]+0.002*[#  10]+0.002*[#  20]+0.001*[#  21]+0.001*[#  25]
          
    |psi|^2 = 0.970
==== e(  24) =     8.34890 eV ==== 
     psi = 0.193*[#  24]+0.193*[#  28]+0.116*[#  23]+0.116*[#  27]+0.061*[#  22]
          +0.061*[#  26]+0.048*[#   8]+0.048*[#  18]+0.029*[#   9]+0.029*[#  19]
          +0.017*[#   5]+0.017*[#  15]+0.012*[#   7]+0.012*[#  17]+0.007*[#   6]
          +0.007*[#  16]+0.002*[#  10]+0.002*[#  20]+0.001*[#  21]+0.001*[#  25]
          
    |psi|^2 = 0.970
==== e(  25) =     8.66632 eV ==== 
     psi = 0.239*[#  23]+0.239*[#  27]+0.143*[#  24]+0.143*[#  28]+0.051*[#   9]
          +0.051*[#  19]+0.031*[#   8]+0.031*[#  18]+0.017*[#   6]+0.017*[#  16]
          +0.010*[#   7]+0.010*[#  17]
    |psi|^2 = 0.981
==== e(  26) =     8.66632 eV ==== 
     psi = 0.239*[#  23]+0.239*[#  27]+0.143*[#  24]+0.143*[#  28]+0.051*[#   9]
          +0.051*[#  19]+0.031*[#   8]+0.031*[#  18]+0.017*[#   6]+0.017*[#  16]
          +0.010*[#   7]+0.010*[#  17]
    |psi|^2 = 0.981
==== e(  27) =    13.28829 eV ==== 
     psi = 0.287*[#  10]+0.287*[#  20]+0.093*[#  22]+0.093*[#  26]+0.059*[#  21]
          +0.059*[#  25]+0.021*[#  24]+0.021*[#  28]+0.013*[#  23]+0.013*[#  27]
          
    |psi|^2 = 0.949
==== e(  28) =    13.28829 eV ==== 
     psi = 0.287*[#  10]+0.287*[#  20]+0.093*[#  22]+0.093*[#  26]+0.059*[#  21]
          +0.059*[#  25]+0.021*[#  24]+0.021*[#  28]+0.013*[#  23]+0.013*[#  27]
          
    |psi|^2 = 0.949
==== e(  29) =    19.07212 eV ==== 
     psi = 0.007*[#  22]+0.007*[#  26]+0.006*[#  10]+0.006*[#  20]+0.004*[#  24]
          +0.004*[#  28]+0.003*[#  23]+0.003*[#  27]+0.001*[#  21]+0.001*[#  25]
          
    |psi|^2 = 0.045
==== e(  30) =    19.07212 eV ==== 
     psi = 0.007*[#  22]+0.007*[#  26]+0.006*[#  10]+0.006*[#  20]+0.004*[#  24]
          +0.004*[#  28]+0.003*[#  23]+0.003*[#  27]+0.001*[#  21]+0.001*[#  25]
          
    |psi|^2 = 0.045
==== e(  31) =    21.18726 eV ==== 
     psi = 0.007*[#  22]+0.007*[#  26]+0.004*[#  10]+0.004*[#  20]+0.003*[#  24]
          +0.003*[#  28]+0.002*[#  23]+0.002*[#  27]
    |psi|^2 = 0.031
==== e(  32) =    21.18726 eV ==== 
     psi = 0.007*[#  22]+0.007*[#  26]+0.004*[#  10]+0.004*[#  20]+0.003*[#  24]
          +0.003*[#  28]+0.002*[#  23]+0.002*[#  27]
    |psi|^2 = 0.031
==== e(  33) =    22.48530 eV ==== 
     psi = 0.004*[#  23]+0.004*[#  27]+0.002*[#  24]+0.002*[#  28]
    |psi|^2 = 0.012
==== e(  34) =    22.48530 eV ==== 
     psi = 0.004*[#  23]+0.004*[#  27]+0.002*[#  24]+0.002*[#  28]
    |psi|^2 = 0.012
==== e(  35) =    27.15148 eV ==== 
 
    |psi|^2 = 0.004
==== e(  36) =    27.15148 eV ==== 
 
    |psi|^2 = 0.004
==== e(  37) =    29.61781 eV ==== 
 
    |psi|^2 = 0.002
==== e(  38) =    29.61781 eV ==== 
 
    |psi|^2 = 0.002
==== e(  39) =    30.59219 eV ==== 
 
    |psi|^2 = 0.003
==== e(  40) =    30.59219 eV ==== 
 
    |psi|^2 = 0.003
==== e(  41) =    32.58326 eV ==== 
 
    |psi|^2 = 0.003
==== e(  42) =    32.58326 eV ==== 
 
    |psi|^2 = 0.003
==== e(  43) =    34.97442 eV ==== 
 
    |psi|^2 = 0.002
==== e(  44) =    34.97442 eV ==== 
 
    |psi|^2 = 0.002
==== e(  45) =    36.33704 eV ==== 
 
    |psi|^2 = 0.004
==== e(  46) =    36.33704 eV ==== 
 
    |psi|^2 = 0.004
==== e(  47) =    38.90277 eV ==== 
 
    |psi|^2 = 0.002
==== e(  48) =    38.90277 eV ==== 
 
    |psi|^2 = 0.002
==== e(  49) =    40.60993 eV ==== 
 
    |psi|^2 = 0.002
==== e(  50) =    40.60993 eV ==== 
 
    |psi|^2 = 0.002
==== e(  51) =    41.20840 eV ==== 
 
    |psi|^2 = 0.003
==== e(  52) =    41.20840 eV ==== 
 
    |psi|^2 = 0.003

 k =   0.2000000000  0.1154700538  0.3121020699
==== e(   1) =  -115.91947 eV ==== 
     psi = 0.499*[#   1]+0.499*[#  11]
    |psi|^2 = 1.000
==== e(   2) =  -115.91947 eV ==== 
     psi = 0.499*[#   1]+0.499*[#  11]
    |psi|^2 = 1.000
==== e(   3) =   -69.59417 eV ==== 
     psi = 0.215*[#   2]+0.215*[#  12]+0.177*[#   4]+0.177*[#  14]+0.107*[#   3]
          +0.107*[#  13]
    |psi|^2 = 1.000
==== e(   4) =   -69.59417 eV ==== 
     psi = 0.215*[#   2]+0.215*[#  12]+0.177*[#   4]+0.177*[#  14]+0.107*[#   3]
          +0.107*[#  13]
    |psi|^2 = 1.000
==== e(   5) =   -69.58615 eV ==== 
     psi = 0.284*[#   2]+0.284*[#  12]+0.135*[#   4]+0.135*[#  14]+0.081*[#   3]
          +0.081*[#  13]
    |psi|^2 = 1.000
==== e(   6) =   -69.58615 eV ==== 
     psi = 0.284*[#   2]+0.284*[#  12]+0.135*[#   4]+0.135*[#  14]+0.081*[#   3]
          +0.081*[#  13]
    |psi|^2 = 1.000
==== e(   7) =   -69.56208 eV ==== 
     psi = 0.312*[#   3]+0.312*[#  13]+0.187*[#   4]+0.187*[#  14]
    |psi|^2 = 1.000
==== e(   8) =   -69.56208 eV ==== 
     psi = 0.312*[#   3]+0.312*[#  13]+0.187*[#   4]+0.187*[#  14]
    |psi|^2 = 1.000
==== e(   9) =    -8.04230 eV ==== 
     psi = 0.406*[#  21]+0.406*[#  25]+0.083*[#  10]+0.083*[#  20]+0.005*[#   5]
          +0.005*[#  15]+0.002*[#   8]+0.002*[#  18]
    |psi|^2 = 0.998
==== e(  10) =    -8.04230 eV ==== 
     psi = 0.406*[#  21]+0.406*[#  25]+0.083*[#  10]+0.083*[#  20]+0.005*[#   5]
          +0.005*[#  15]+0.002*[#   8]+0.002*[#  18]
    |psi|^2 = 0.998
==== e(  11) =     2.99227 eV ==== 
     psi = 0.091*[#   5]+0.091*[#  15]+0.079*[#   8]+0.079*[#  18]+0.078*[#  22]
          +0.078*[#  26]+0.049*[#  24]+0.049*[#  28]+0.048*[#   7]+0.048*[#  17]
          +0.047*[#   9]+0.047*[#  19]+0.047*[#  10]+0.047*[#  20]+0.029*[#  23]
          +0.029*[#  27]+0.029*[#   6]+0.029*[#  16]+0.002*[#  21]+0.002*[#  25]
          
    |psi|^2 = 0.998
==== e(  12) =     2.99227 eV ==== 
     psi = 0.091*[#   5]+0.091*[#  15]+0.079*[#   8]+0.079*[#  18]+0.078*[#  22]
          +0.078*[#  26]+0.049*[#  24]+0.049*[#  28]+0.048*[#   7]+0.048*[#  17]
          +0.047*[#   9]+0.047*[#  19]+0.047*[#  10]+0.047*[#  20]+0.029*[#  23]
          +0.029*[#  27]+0.029*[#   6]+0.029*[#  16]+0.002*[#  21]+0.002*[#  25]
          
    |psi|^2 = 0.998
==== e(  13) =     3.41152 eV ==== 
     psi = 0.180*[#   9]+0.180*[#  19]+0.109*[#   8]+0.109*[#  18]+0.067*[#  23]
          +0.067*[#  27]+0.064*[#   6]+0.064*[#  16]+0.040*[#  24]+0.040*[#  28]
          +0.039*[#   7]+0.039*[#  17]
    |psi|^2 = 0.998
==== e(  14) =     3.41152 eV ==== 
     psi = 0.180*[#   9]+0.180*[#  19]+0.109*[#   8]+0.109*[#  18]+0.067*[#  23]
          +0.067*[#  27]+0.064*[#   6]+0.064*[#  16]+0.040*[#  24]+0.040*[#  28]
          +0.039*[#   7]+0.039*[#  17]
    |psi|^2 = 0.998
==== e(  15) =     3.42689 eV ==== 
     psi = 0.218*[#   5]+0.218*[#  15]+0.096*[#   8]+0.096*[#  18]+0.062*[#  22]
          +0.062*[#  26]+0.059*[#   9]+0.059*[#  19]+0.030*[#  24]+0.030*[#  28]
          +0.018*[#  23]+0.018*[#  27]+0.008*[#   7]+0.008*[#  17]+0.005*[#   6]
          +0.005*[#  16]+0.003*[#  10]+0.003*[#  20]
    |psi|^2 = 0.997
==== e(  16) =     3.42689 eV ==== 
     psi = 0.218*[#   5]+0.218*[#  15]+0.096*[#   8]+0.096*[#  18]+0.062*[#  22]
          +0.062*[#  26]+0.059*[#   9]+0.059*[#  19]+0.030*[#  24]+0.030*[#  28]
          +0.018*[#  23]+0.018*[#  27]+0.008*[#   7]+0.008*[#  17]+0.005*[#   6]
          +0.005*[#  16]+0.003*[#  10]+0.003*[#  20]
    |psi|^2 = 0.997
==== e(  17) =     4.42614 eV ==== 
     psi = 0.231*[#   6]+0.231*[#  16]+0.135*[#   7]+0.135*[#  17]+0.084*[#   9]
          +0.084*[#  19]+0.050*[#   8]+0.050*[#  18]
    |psi|^2 = 0.999
==== e(  18) =     4.42614 eV ==== 
     psi = 0.231*[#   6]+0.231*[#  16]+0.135*[#   7]+0.135*[#  17]+0.084*[#   9]
          +0.084*[#  19]+0.050*[#   8]+0.050*[#  18]
    |psi|^2 = 0.999
==== e(  19) =     4.42997 eV ==== 
     psi = 0.232*[#   7]+0.232*[#  17]+0.136*[#   6]+0.136*[#  16]+0.062*[#   8]
          +0.062*[#  18]+0.037*[#   9]+0.037*[#  19]+0.028*[#   5]+0.028*[#  15]
          +0.002*[#  22]+0.002*[#  26]+0.002*[#  10]+0.002*[#  20]
    |psi|^2 = 0.999
==== e(  20) =     4.42997 eV ==== 
     psi = 0.232*[#   7]+0.232*[#  17]+0.136*[#   6]+0.136*[#  16]+0.062*[#   8]
          +0.062*[#  18]+0.037*[#   9]+0.037*[#  19]+0.028*[#   5]+0.028*[#  15]
          +0.002*[#  22]+0.002*[#  26]+0.002*[#  10]+0.002*[#  20]
    |psi|^2 = 0.999
==== e(  21) =     6.72537 eV ==== 
     psi = 0.142*[#  22]+0.142*[#  26]+0.120*[#   5]+0.120*[#  15]+0.057*[#  10]
          +0.057*[#  20]+0.035*[#   8]+0.035*[#  18]+0.035*[#  21]+0.035*[#  25]
          +0.035*[#  24]+0.035*[#  28]+0.021*[#   9]+0.021*[#  19]+0.021*[#  23]
          +0.021*[#  27]+0.017*[#   7]+0.017*[#  17]+0.010*[#   6]+0.010*[#  16]
          
    |psi|^2 = 0.988
==== e(  22) =     6.72537 eV ==== 
     psi = 0.142*[#  22]+0.142*[#  26]+0.120*[#   5]+0.120*[#  15]+0.057*[#  10]
          +0.057*[#  20]+0.035*[#   8]+0.035*[#  18]+0.035*[#  21]+0.035*[#  25]
          +0.035*[#  24]+0.035*[#  28]+0.021*[#   9]+0.021*[#  19]+0.021*[#  23]
          +0.021*[#  27]+0.017*[#   7]+0.017*[#  17]+0.010*[#   6]+0.010*[#  16]
          
    |psi|^2 = 0.988
==== e(  23) =     8.09712 eV ==== 
     psi = 0.158*[#  24]+0.158*[#  28]+0.117*[#  22]+0.117*[#  26]+0.095*[#  23]
          +0.095*[#  27]+0.038*[#   8]+0.038*[#  18]+0.036*[#   5]+0.036*[#  15]
          +0.023*[#   9]+0.023*[#  19]+0.009*[#   7]+0.009*[#  17]+0.005*[#   6]
          +0.005*[#  16]
    |psi|^2 = 0.964
==== e(  24) =     8.09712 eV ==== 
     psi = 0.158*[#  24]+0.158*[#  28]+0.117*[#  22]+0.117*[#  26]+0.095*[#  23]
          +0.095*[#  27]+0.038*[#   8]+0.038*[#  18]+0.036*[#   5]+0.036*[#  15]
          +0.023*[#   9]+0.023*[#  19]+0.009*[#   7]+0.009*[#  17]+0.005*[#   6]
          +0.005*[#  16]
    |psi|^2 = 0.964
==== e(  25) =     8.49435 eV ==== 
     psi = 0.239*[#  23]+0.239*[#  27]+0.143*[#  24]+0.143*[#  28]+0.048*[#   9]
          +0.048*[#  19]+0.029*[#   8]+0.029*[#  18]+0.019*[#   6]+0.019*[#  16]
          +0.012*[#   7]+0.012*[#  17]
    |psi|^2 = 0.979
==== e(  26) =     8.49435 eV ==== 
     psi = 0.239*[#  23]+0.239*[#  27]+0.143*[#  24]+0.143*[#  28]+0.048*[#   9]
          +0.048*[#  19]+0.029*[#   8]+0.029*[#  18]+0.019*[#   6]+0.019*[#  16]
          +0.012*[#   7]+0.012*[#  17]
    |psi|^2 = 0.979
==== e(  27) =    13.63698 eV ==== 
     psi = 0.286*[#  10]+0.286*[#  20]+0.080*[#  22]+0.080*[#  26]+0.051*[#  21]
          +0.051*[#  25]+0.026*[#  24]+0.026*[#  28]+0.016*[#  23]+0.016*[#  27]
          
    |psi|^2 = 0.923
==== e(  28) =    13.63698 eV ==== 
     psi = 0.286*[#  10]+0.286*[#  20]+0.080*[#  22]+0.080*[#  26]+0.051*[#  21]
          +0.051*[#  25]+0.026*[#  24]+0.026*[#  28]+0.016*[#  23]+0.016*[#  27]
          
    |psi|^2 = 0.923
==== e(  29) =    18.86854 eV ==== 
     psi = 0.013*[#  10]+0.013*[#  20]+0.009*[#  24]+0.009*[#  28]+0.005*[#  23]
          +0.005*[#  27]+0.004*[#  22]+0.004*[#  26]+0.002*[#  21]+0.002*[#  25]
          
    |psi|^2 = 0.068
==== e(  30) =    18.86854 eV ==== 
     psi = 0.013*[#  10]+0.013*[#  20]+0.009*[#  24]+0.009*[#  28]+0.005*[#  23]
          +0.005*[#  27]+0.004*[#  22]+0.004*[#  26]+0.002*[#  21]+0.002*[#  25]
          
    |psi|^2 = 0.068
==== e(  31) =    20.84949 eV ==== 
     psi = 0.010*[#  22]+0.010*[#  26]+0.005*[#  10]+0.005*[#  20]+0.002*[#  24]
          +0.002*[#  28]+0.001*[#  23]+0.001*[#  27]
    |psi|^2 = 0.039
==== e(  32) =    20.84949 eV ==== 
     psi = 0.010*[#  22]+0.010*[#  26]+0.005*[#  10]+0.005*[#  20]+0.002*[#  24]
          +0.002*[#  28]+0.001*[#  23]+0.001*[#  27]
    |psi|^2 = 0.039
==== e(  33) =    22.60121 eV ==== 
     psi = 0.005*[#  23]+0.005*[#  27]+0.003*[#  24]+0.003*[#  28]
    |psi|^2 = 0.016
==== e(  34) =    22.60121 eV ==== 
     psi = 0.005*[#  23]+0.005*[#  27]+0.003*[#  24]+0.003*[#  28]
    |psi|^2 = 0.016
==== e(  35) =    26.61969 eV ==== 
 
    |psi|^2 = 0.004
==== e(  36) =    26.61969 eV ==== 
 
    |psi|^2 = 0.004
==== e(  37) =    29.79202 eV ==== 
 
    |psi|^2 = 0.001
==== e(  38) =    29.79202 eV ==== 
 
    |psi|^2 = 0.001
==== e(  39) =    31.36375 eV ==== 
 
    |psi|^2 = 0.004
==== e(  40) =    31.36375 eV ==== 
 
    |psi|^2 = 0.004
==== e(  41) =    32.70623 eV ==== 
 
    |psi|^2 = 0.003
==== e(  42) =    32.70623 eV ==== 
 
    |psi|^2 = 0.003
==== e(  43) =    35.38356 eV ==== 
 
    |psi|^2 = 0.003
==== e(  44) =    35.38356 eV ==== 
 
    |psi|^2 = 0.003
==== e(  45) =    37.00778 eV ==== 
 
    |psi|^2 = 0.004
==== e(  46) =    37.00778 eV ==== 
 
    |psi|^2 = 0.004
==== e(  47) =    39.09708 eV ==== 
 
    |psi|^2 = 0.002
==== e(  48) =    39.09708 eV ==== 
 
    |psi|^2 = 0.002
==== e(  49) =    40.99240 eV ==== 
 
    |psi|^2 = 0.001
==== e(  50) =    40.99240 eV ==== 
 
    |psi|^2 = 0.001
==== e(  51) =    41.32482 eV ==== 
 
    |psi|^2 = 0.002
==== e(  52) =    41.32482 eV ==== 
 
    |psi|^2 = 0.002

 k =   0.2500000000  0.1443375673  0.3121020699
==== e(   1) =  -115.91943 eV ==== 
     psi = 0.498*[#   1]+0.498*[#  11]
    |psi|^2 = 1.000
==== e(   2) =  -115.91943 eV ==== 
     psi = 0.498*[#   1]+0.498*[#  11]
    |psi|^2 = 1.000
==== e(   3) =   -69.59626 eV ==== 
     psi = 0.397*[#   2]+0.397*[#  12]+0.064*[#   4]+0.064*[#  14]+0.039*[#   3]
          +0.039*[#  13]
    |psi|^2 = 1.000
==== e(   4) =   -69.59626 eV ==== 
     psi = 0.397*[#   2]+0.397*[#  12]+0.064*[#   4]+0.064*[#  14]+0.039*[#   3]
          +0.039*[#  13]
    |psi|^2 = 1.000
==== e(   5) =   -69.57252 eV ==== 
     psi = 0.248*[#   4]+0.248*[#  14]+0.149*[#   3]+0.149*[#  13]+0.102*[#   2]
          +0.102*[#  12]
    |psi|^2 = 1.000
==== e(   6) =   -69.57252 eV ==== 
     psi = 0.248*[#   4]+0.248*[#  14]+0.149*[#   3]+0.149*[#  13]+0.102*[#   2]
          +0.102*[#  12]
    |psi|^2 = 1.000
==== e(   7) =   -69.55720 eV ==== 
     psi = 0.312*[#   3]+0.312*[#  13]+0.187*[#   4]+0.187*[#  14]
    |psi|^2 = 1.000
==== e(   8) =   -69.55720 eV ==== 
     psi = 0.312*[#   3]+0.312*[#  13]+0.187*[#   4]+0.187*[#  14]
    |psi|^2 = 1.000
==== e(   9) =    -7.96942 eV ==== 
     psi = 0.417*[#  21]+0.417*[#  25]+0.070*[#  10]+0.070*[#  20]+0.005*[#   5]
          +0.005*[#  15]+0.002*[#   8]+0.002*[#  18]+0.001*[#   9]+0.001*[#  19]
          +0.001*[#   7]+0.001*[#  17]
    |psi|^2 = 0.998
==== e(  10) =    -7.96942 eV ==== 
     psi = 0.417*[#  21]+0.417*[#  25]+0.070*[#  10]+0.070*[#  20]+0.005*[#   5]
          +0.005*[#  15]+0.002*[#   8]+0.002*[#  18]+0.001*[#   9]+0.001*[#  19]
          +0.001*[#   7]+0.001*[#  17]
    |psi|^2 = 0.998
==== e(  11) =     2.96364 eV ==== 
     psi = 0.080*[#   8]+0.080*[#  18]+0.072*[#  22]+0.072*[#  26]+0.069*[#   5]
          +0.069*[#  15]+0.058*[#  24]+0.058*[#  28]+0.053*[#   7]+0.053*[#  17]
          +0.051*[#  10]+0.051*[#  20]+0.048*[#   9]+0.048*[#  19]+0.035*[#  23]
          +0.035*[#  27]+0.032*[#   6]+0.032*[#  16]+0.002*[#  21]+0.002*[#  25]
          
    |psi|^2 = 0.998
==== e(  12) =     2.96364 eV ==== 
     psi = 0.080*[#   8]+0.080*[#  18]+0.072*[#  22]+0.072*[#  26]+0.069*[#   5]
          +0.069*[#  15]+0.058*[#  24]+0.058*[#  28]+0.053*[#   7]+0.053*[#  17]
          +0.051*[#  10]+0.051*[#  20]+0.048*[#   9]+0.048*[#  19]+0.035*[#  23]
          +0.035*[#  27]+0.032*[#   6]+0.032*[#  16]+0.002*[#  21]+0.002*[#  25]
          
    |psi|^2 = 0.998
==== e(  13) =     3.48477 eV ==== 
     psi = 0.244*[#   5]+0.244*[#  15]+0.083*[#   8]+0.083*[#  18]+0.063*[#  22]
          +0.063*[#  26]+0.049*[#   9]+0.049*[#  19]+0.029*[#  24]+0.029*[#  28]
          +0.017*[#  23]+0.017*[#  27]+0.006*[#   7]+0.006*[#  17]+0.005*[#  10]
          +0.005*[#  20]+0.004*[#   6]+0.004*[#  16]
    |psi|^2 = 0.997
==== e(  14) =     3.48477 eV ==== 
     psi = 0.244*[#   5]+0.244*[#  15]+0.083*[#   8]+0.083*[#  18]+0.063*[#  22]
          +0.063*[#  26]+0.049*[#   9]+0.049*[#  19]+0.029*[#  24]+0.029*[#  28]
          +0.017*[#  23]+0.017*[#  27]+0.006*[#   7]+0.006*[#  17]+0.005*[#  10]
          +0.005*[#  20]+0.004*[#   6]+0.004*[#  16]
    |psi|^2 = 0.997
==== e(  15) =     3.49163 eV ==== 
     psi = 0.163*[#   9]+0.163*[#  19]+0.097*[#   8]+0.097*[#  18]+0.083*[#   6]
          +0.083*[#  16]+0.067*[#  23]+0.067*[#  27]+0.050*[#   7]+0.050*[#  17]
          +0.040*[#  24]+0.040*[#  28]
    |psi|^2 = 0.998
==== e(  16) =     3.49163 eV ==== 
     psi = 0.163*[#   9]+0.163*[#  19]+0.097*[#   8]+0.097*[#  18]+0.083*[#   6]
          +0.083*[#  16]+0.067*[#  23]+0.067*[#  27]+0.050*[#   7]+0.050*[#  17]
          +0.040*[#  24]+0.040*[#  28]
    |psi|^2 = 0.998
==== e(  17) =     4.44338 eV ==== 
     psi = 0.208*[#   6]+0.208*[#  16]+0.124*[#   7]+0.124*[#  17]+0.105*[#   9]
          +0.105*[#  19]+0.063*[#   8]+0.063*[#  18]
    |psi|^2 = 0.999
==== e(  18) =     4.44338 eV ==== 
     psi = 0.208*[#   6]+0.208*[#  16]+0.124*[#   7]+0.124*[#  17]+0.105*[#   9]
          +0.105*[#  19]+0.063*[#   8]+0.063*[#  18]
    |psi|^2 = 0.999
==== e(  19) =     4.46525 eV ==== 
     psi = 0.217*[#   7]+0.217*[#  17]+0.130*[#   6]+0.130*[#  16]+0.067*[#   8]
          +0.067*[#  18]+0.040*[#   9]+0.040*[#  19]+0.039*[#   5]+0.039*[#  15]
          +0.002*[#  10]+0.002*[#  20]+0.002*[#  22]+0.002*[#  26]+0.001*[#  21]
          +0.001*[#  25]
    |psi|^2 = 0.999
==== e(  20) =     4.46525 eV ==== 
     psi = 0.217*[#   7]+0.217*[#  17]+0.130*[#   6]+0.130*[#  16]+0.067*[#   8]
          +0.067*[#  18]+0.040*[#   9]+0.040*[#  19]+0.039*[#   5]+0.039*[#  15]
          +0.002*[#  10]+0.002*[#  20]+0.002*[#  22]+0.002*[#  26]+0.001*[#  21]
          +0.001*[#  25]
    |psi|^2 = 0.999
==== e(  21) =     6.52100 eV ==== 
     psi = 0.096*[#  22]+0.096*[#  26]+0.085*[#   5]+0.085*[#  15]+0.059*[#  24]
          +0.059*[#  28]+0.054*[#  10]+0.054*[#  20]+0.053*[#   8]+0.053*[#  18]
          +0.036*[#  23]+0.036*[#  27]+0.032*[#   9]+0.032*[#  19]+0.030*[#  21]
          +0.030*[#  25]+0.029*[#   7]+0.029*[#  17]+0.018*[#   6]+0.018*[#  16]
          
    |psi|^2 = 0.987
==== e(  22) =     6.52100 eV ==== 
     psi = 0.096*[#  22]+0.096*[#  26]+0.085*[#   5]+0.085*[#  15]+0.059*[#  24]
          +0.059*[#  28]+0.054*[#  10]+0.054*[#  20]+0.053*[#   8]+0.053*[#  18]
          +0.036*[#  23]+0.036*[#  27]+0.032*[#   9]+0.032*[#  19]+0.030*[#  21]
          +0.030*[#  25]+0.029*[#   7]+0.029*[#  17]+0.018*[#   6]+0.018*[#  16]
          
    |psi|^2 = 0.987
==== e(  23) =     7.94165 eV ==== 
     psi = 0.181*[#  22]+0.181*[#  26]+0.119*[#  24]+0.119*[#  28]+0.071*[#  23]
          +0.071*[#  27]+0.057*[#   5]+0.057*[#  15]+0.027*[#   8]+0.027*[#  18]
          +0.016*[#   9]+0.016*[#  19]+0.005*[#   7]+0.005*[#  17]+0.003*[#   6]
          +0.003*[#  16]+0.001*[#  10]+0.001*[#  20]
    |psi|^2 = 0.963
==== e(  24) =     7.94165 eV ==== 
     psi = 0.181*[#  22]+0.181*[#  26]+0.119*[#  24]+0.119*[#  28]+0.071*[#  23]
          +0.071*[#  27]+0.057*[#   5]+0.057*[#  15]+0.027*[#   8]+0.027*[#  18]
          +0.016*[#   9]+0.016*[#  19]+0.005*[#   7]+0.005*[#  17]+0.003*[#   6]
          +0.003*[#  16]+0.001*[#  10]+0.001*[#  20]
    |psi|^2 = 0.963
==== e(  25) =     8.32385 eV ==== 
     psi = 0.238*[#  23]+0.238*[#  27]+0.143*[#  24]+0.143*[#  28]+0.045*[#   9]
          +0.045*[#  19]+0.027*[#   8]+0.027*[#  18]+0.023*[#   6]+0.023*[#  16]
          +0.014*[#   7]+0.014*[#  17]
    |psi|^2 = 0.977
==== e(  26) =     8.32385 eV ==== 
     psi = 0.238*[#  23]+0.238*[#  27]+0.143*[#  24]+0.143*[#  28]+0.045*[#   9]
          +0.045*[#  19]+0.027*[#   8]+0.027*[#  18]+0.023*[#   6]+0.023*[#  16]
          +0.014*[#   7]+0.014*[#  17]
    |psi|^2 = 0.977
==== e(  27) =    13.98358 eV ==== 
     psi = 0.279*[#  10]+0.279*[#  20]+0.067*[#  22]+0.067*[#  26]+0.043*[#  21]
          +0.043*[#  25]+0.028*[#  24]+0.028*[#  28]+0.017*[#  23]+0.017*[#  27]
          
    |psi|^2 = 0.870
==== e(  28) =    13.98358 eV ==== 
     psi = 0.279*[#  10]+0.279*[#  20]+0.067*[#  22]+0.067*[#  26]+0.043*[#  21]
          +0.043*[#  25]+0.028*[#  24]+0.028*[#  28]+0.017*[#  23]+0.017*[#  27]
          
    |psi|^2 = 0.870
==== e(  29) =    18.57308 eV ==== 
     psi = 0.030*[#  10]+0.030*[#  20]+0.015*[#  24]+0.015*[#  28]+0.009*[#  23]
          +0.009*[#  27]+0.003*[#  22]+0.003*[#  26]+0.003*[#  21]+0.003*[#  25]
          
    |psi|^2 = 0.123
==== e(  30) =    18.57308 eV ==== 
     psi = 0.030*[#  10]+0.030*[#  20]+0.015*[#  24]+0.015*[#  28]+0.009*[#  23]
          +0.009*[#  27]+0.003*[#  22]+0.003*[#  26]+0.003*[#  21]+0.003*[#  25]
          
    |psi|^2 = 0.123
==== e(  31) =    20.68168 eV ==== 
     psi = 0.010*[#  22]+0.010*[#  26]+0.005*[#  10]+0.005*[#  20]+0.002*[#  24]
          +0.002*[#  28]+0.001*[#  23]+0.001*[#  27]
    |psi|^2 = 0.039
==== e(  32) =    20.68168 eV ==== 
     psi = 0.010*[#  22]+0.010*[#  26]+0.005*[#  10]+0.005*[#  20]+0.002*[#  24]
          +0.002*[#  28]+0.001*[#  23]+0.001*[#  27]
    |psi|^2 = 0.039
==== e(  33) =    22.70840 eV ==== 
     psi = 0.005*[#  23]+0.005*[#  27]+0.003*[#  24]+0.003*[#  28]
    |psi|^2 = 0.019
==== e(  34) =    22.70840 eV ==== 
     psi = 0.005*[#  23]+0.005*[#  27]+0.003*[#  24]+0.003*[#  28]
    |psi|^2 = 0.019
==== e(  35) =    26.11702 eV ==== 
 
    |psi|^2 = 0.005
==== e(  36) =    26.11702 eV ==== 
 
    |psi|^2 = 0.005
==== e(  37) =    30.08450 eV ==== 
 
    |psi|^2 = 0.000
==== e(  38) =    30.08450 eV ==== 
 
    |psi|^2 = 0.000
==== e(  39) =    31.48499 eV ==== 
     psi = 0.001*[#  22]+0.001*[#  26]
    |psi|^2 = 0.005
==== e(  40) =    31.48499 eV ==== 
     psi = 0.001*[#  22]+0.001*[#  26]
    |psi|^2 = 0.005
==== e(  41) =    33.59402 eV ==== 
 
    |psi|^2 = 0.003
==== e(  42) =    33.59402 eV ==== 
 
    |psi|^2 = 0.003
==== e(  43) =    35.76975 eV ==== 
     psi = 0.001*[#  23]+0.001*[#  27]
    |psi|^2 = 0.003
==== e(  44) =    35.76975 eV ==== 
     psi = 0.001*[#  23]+0.001*[#  27]
    |psi|^2 = 0.003
==== e(  45) =    37.38829 eV ==== 
 
    |psi|^2 = 0.003
==== e(  46) =    37.38829 eV ==== 
 
    |psi|^2 = 0.003
==== e(  47) =    39.33064 eV ==== 
 
    |psi|^2 = 0.002
==== e(  48) =    39.33064 eV ==== 
 
    |psi|^2 = 0.002
==== e(  49) =    41.49564 eV ==== 
 
    |psi|^2 = 0.001
==== e(  50) =    41.49564 eV ==== 
 
    |psi|^2 = 0.001
==== e(  51) =    41.61863 eV ==== 
 
    |psi|^2 = 0.001
==== e(  52) =    41.61863 eV ==== 
 
    |psi|^2 = 0.001

 k =   0.3000000000  0.1732050808  0.3121020699
==== e(   1) =  -115.91941 eV ==== 
     psi = 0.498*[#   1]+0.498*[#  11]
    |psi|^2 = 1.000
==== e(   2) =  -115.91941 eV ==== 
     psi = 0.498*[#   1]+0.498*[#  11]
    |psi|^2 = 1.000
==== e(   3) =   -69.59048 eV ==== 
     psi = 0.406*[#   2]+0.406*[#  12]+0.058*[#   4]+0.058*[#  14]+0.035*[#   3]
          +0.035*[#  13]
    |psi|^2 = 1.000
==== e(   4) =   -69.59048 eV ==== 
     psi = 0.406*[#   2]+0.406*[#  12]+0.058*[#   4]+0.058*[#  14]+0.035*[#   3]
          +0.035*[#  13]
    |psi|^2 = 1.000
==== e(   5) =   -69.57417 eV ==== 
     psi = 0.254*[#   4]+0.254*[#  14]+0.152*[#   3]+0.152*[#  13]+0.094*[#   2]
          +0.094*[#  12]
    |psi|^2 = 1.000
==== e(   6) =   -69.57417 eV ==== 
     psi = 0.254*[#   4]+0.254*[#  14]+0.152*[#   3]+0.152*[#  13]+0.094*[#   2]
          +0.094*[#  12]
    |psi|^2 = 1.000
==== e(   7) =   -69.55501 eV ==== 
     psi = 0.312*[#   3]+0.312*[#  13]+0.188*[#   4]+0.188*[#  14]
    |psi|^2 = 1.000
==== e(   8) =   -69.55501 eV ==== 
     psi = 0.312*[#   3]+0.312*[#  13]+0.188*[#   4]+0.188*[#  14]
    |psi|^2 = 1.000
==== e(   9) =    -7.89496 eV ==== 
     psi = 0.430*[#  21]+0.430*[#  25]+0.056*[#  10]+0.056*[#  20]+0.004*[#   5]
          +0.004*[#  15]+0.003*[#   8]+0.003*[#  18]+0.002*[#   9]+0.002*[#  19]
          +0.001*[#   7]+0.001*[#  17]
    |psi|^2 = 0.997
==== e(  10) =    -7.89496 eV ==== 
     psi = 0.430*[#  21]+0.430*[#  25]+0.056*[#  10]+0.056*[#  20]+0.004*[#   5]
          +0.004*[#  15]+0.003*[#   8]+0.003*[#  18]+0.002*[#   9]+0.002*[#  19]
          +0.001*[#   7]+0.001*[#  17]
    |psi|^2 = 0.997
==== e(  11) =     2.94770 eV ==== 
     psi = 0.075*[#   8]+0.075*[#  18]+0.068*[#  22]+0.068*[#  26]+0.066*[#  24]
          +0.066*[#  28]+0.060*[#   7]+0.060*[#  17]+0.055*[#   5]+0.055*[#  15]
          +0.054*[#  10]+0.054*[#  20]+0.045*[#   9]+0.045*[#  19]+0.039*[#  23]
          +0.039*[#  27]+0.036*[#   6]+0.036*[#  16]+0.002*[#  21]+0.002*[#  25]
          
    |psi|^2 = 0.997
==== e(  12) =     2.94770 eV ==== 
     psi = 0.075*[#   8]+0.075*[#  18]+0.068*[#  22]+0.068*[#  26]+0.066*[#  24]
          +0.066*[#  28]+0.060*[#   7]+0.060*[#  17]+0.055*[#   5]+0.055*[#  15]
          +0.054*[#  10]+0.054*[#  20]+0.045*[#   9]+0.045*[#  19]+0.039*[#  23]
          +0.039*[#  27]+0.036*[#   6]+0.036*[#  16]+0.002*[#  21]+0.002*[#  25]
          
    |psi|^2 = 0.997
==== e(  13) =     3.54959 eV ==== 
     psi = 0.147*[#   9]+0.147*[#  19]+0.099*[#   6]+0.099*[#  16]+0.088*[#   8]
          +0.088*[#  18]+0.065*[#  23]+0.065*[#  27]+0.060*[#   7]+0.060*[#  17]
          +0.040*[#  24]+0.040*[#  28]
    |psi|^2 = 0.998
==== e(  14) =     3.54959 eV ==== 
     psi = 0.147*[#   9]+0.147*[#  19]+0.099*[#   6]+0.099*[#  16]+0.088*[#   8]
          +0.088*[#  18]+0.065*[#  23]+0.065*[#  27]+0.060*[#   7]+0.060*[#  17]
          +0.040*[#  24]+0.040*[#  28]
    |psi|^2 = 0.998
==== e(  15) =     3.56069 eV ==== 
     psi = 0.261*[#   5]+0.261*[#  15]+0.069*[#   8]+0.069*[#  18]+0.061*[#  22]
          +0.061*[#  26]+0.042*[#   9]+0.042*[#  19]+0.029*[#  24]+0.029*[#  28]
          +0.018*[#  23]+0.018*[#  27]+0.007*[#   7]+0.007*[#  17]+0.006*[#  10]
          +0.006*[#  20]+0.004*[#   6]+0.004*[#  16]
    |psi|^2 = 0.997
==== e(  16) =     3.56069 eV ==== 
     psi = 0.261*[#   5]+0.261*[#  15]+0.069*[#   8]+0.069*[#  18]+0.061*[#  22]
          +0.061*[#  26]+0.042*[#   9]+0.042*[#  19]+0.029*[#  24]+0.029*[#  28]
          +0.018*[#  23]+0.018*[#  27]+0.007*[#   7]+0.007*[#  17]+0.006*[#  10]
          +0.006*[#  20]+0.004*[#   6]+0.004*[#  16]
    |psi|^2 = 0.997
==== e(  17) =     4.46057 eV ==== 
     psi = 0.187*[#   6]+0.187*[#  16]+0.125*[#   9]+0.125*[#  19]+0.112*[#   7]
          +0.112*[#  17]+0.075*[#   8]+0.075*[#  18]
    |psi|^2 = 1.000
==== e(  18) =     4.46057 eV ==== 
     psi = 0.187*[#   6]+0.187*[#  16]+0.125*[#   9]+0.125*[#  19]+0.112*[#   7]
          +0.112*[#  17]+0.075*[#   8]+0.075*[#  18]
    |psi|^2 = 1.000
==== e(  19) =     4.50053 eV ==== 
     psi = 0.199*[#   7]+0.199*[#  17]+0.119*[#   6]+0.119*[#  16]+0.078*[#   8]
          +0.078*[#  18]+0.048*[#   5]+0.048*[#  15]+0.046*[#   9]+0.046*[#  19]
          +0.003*[#  10]+0.003*[#  20]+0.003*[#  22]+0.003*[#  26]+0.002*[#  21]
          +0.002*[#  25]
    |psi|^2 = 0.999
==== e(  20) =     4.50053 eV ==== 
     psi = 0.199*[#   7]+0.199*[#  17]+0.119*[#   6]+0.119*[#  16]+0.078*[#   8]
          +0.078*[#  18]+0.048*[#   5]+0.048*[#  15]+0.046*[#   9]+0.046*[#  19]
          +0.003*[#  10]+0.003*[#  20]+0.003*[#  22]+0.003*[#  26]+0.002*[#  21]
          +0.002*[#  25]
    |psi|^2 = 0.999
==== e(  21) =     6.22271 eV ==== 
     psi = 0.078*[#  24]+0.078*[#  28]+0.067*[#   8]+0.067*[#  18]+0.061*[#  22]
          +0.061*[#  26]+0.059*[#   5]+0.059*[#  15]+0.049*[#  10]+0.049*[#  20]
          +0.047*[#  23]+0.047*[#  27]+0.042*[#   7]+0.042*[#  17]+0.040*[#   9]
          +0.040*[#  19]+0.025*[#   6]+0.025*[#  16]+0.024*[#  21]+0.024*[#  25]
          
    |psi|^2 = 0.984
==== e(  22) =     6.22271 eV ==== 
     psi = 0.078*[#  24]+0.078*[#  28]+0.067*[#   8]+0.067*[#  18]+0.061*[#  22]
          +0.061*[#  26]+0.059*[#   5]+0.059*[#  15]+0.049*[#  10]+0.049*[#  20]
          +0.047*[#  23]+0.047*[#  27]+0.042*[#   7]+0.042*[#  17]+0.040*[#   9]
          +0.040*[#  19]+0.025*[#   6]+0.025*[#  16]+0.024*[#  21]+0.024*[#  25]
          
    |psi|^2 = 0.984
==== e(  23) =     7.87647 eV ==== 
     psi = 0.233*[#  22]+0.233*[#  26]+0.086*[#  24]+0.086*[#  28]+0.071*[#   5]
          +0.071*[#  15]+0.052*[#  23]+0.052*[#  27]+0.020*[#   8]+0.020*[#  18]
          +0.012*[#   9]+0.012*[#  19]+0.003*[#   7]+0.003*[#  10]+0.003*[#  17]
          +0.003*[#  20]+0.002*[#   6]+0.002*[#  16]+0.001*[#  21]+0.001*[#  25]
          
    |psi|^2 = 0.966
==== e(  24) =     7.87647 eV ==== 
     psi = 0.233*[#  22]+0.233*[#  26]+0.086*[#  24]+0.086*[#  28]+0.071*[#   5]
          +0.071*[#  15]+0.052*[#  23]+0.052*[#  27]+0.020*[#   8]+0.020*[#  18]
          +0.012*[#   9]+0.012*[#  19]+0.003*[#   7]+0.003*[#  10]+0.003*[#  17]
          +0.003*[#  20]+0.002*[#   6]+0.002*[#  16]+0.001*[#  21]+0.001*[#  25]
          
    |psi|^2 = 0.966
==== e(  25) =     8.13490 eV ==== 
     psi = 0.238*[#  23]+0.238*[#  27]+0.143*[#  24]+0.143*[#  28]+0.040*[#   9]
          +0.040*[#  19]+0.026*[#   6]+0.026*[#  16]+0.024*[#   8]+0.024*[#  18]
          +0.016*[#   7]+0.016*[#  17]
    |psi|^2 = 0.974
==== e(  26) =     8.13490 eV ==== 
     psi = 0.238*[#  23]+0.238*[#  27]+0.143*[#  24]+0.143*[#  28]+0.040*[#   9]
          +0.040*[#  19]+0.026*[#   6]+0.026*[#  16]+0.024*[#   8]+0.024*[#  18]
          +0.016*[#   7]+0.016*[#  17]
    |psi|^2 = 0.974
==== e(  27) =    14.29089 eV ==== 
     psi = 0.261*[#  10]+0.261*[#  20]+0.052*[#  22]+0.052*[#  26]+0.034*[#  21]
          +0.034*[#  25]+0.025*[#  24]+0.025*[#  28]+0.015*[#  23]+0.015*[#  27]
          
    |psi|^2 = 0.778
==== e(  28) =    14.29089 eV ==== 
     psi = 0.261*[#  10]+0.261*[#  20]+0.052*[#  22]+0.052*[#  26]+0.034*[#  21]
          +0.034*[#  25]+0.025*[#  24]+0.025*[#  28]+0.015*[#  23]+0.015*[#  27]
          
    |psi|^2 = 0.778
==== e(  29) =    18.25069 eV ==== 
     psi = 0.060*[#  10]+0.060*[#  20]+0.023*[#  24]+0.023*[#  28]+0.014*[#  23]
          +0.014*[#  27]+0.006*[#  22]+0.006*[#  26]+0.004*[#  21]+0.004*[#  25]
          
    |psi|^2 = 0.218
==== e(  30) =    18.25069 eV ==== 
     psi = 0.060*[#  10]+0.060*[#  20]+0.023*[#  24]+0.023*[#  28]+0.014*[#  23]
          +0.014*[#  27]+0.006*[#  22]+0.006*[#  26]+0.004*[#  21]+0.004*[#  25]
          
    |psi|^2 = 0.218
==== e(  31) =    20.60578 eV ==== 
     psi = 0.009*[#  22]+0.009*[#  26]+0.005*[#  10]+0.005*[#  20]+0.001*[#  24]
          +0.001*[#  28]
    |psi|^2 = 0.036
==== e(  32) =    20.60578 eV ==== 
     psi = 0.009*[#  22]+0.009*[#  26]+0.005*[#  10]+0.005*[#  20]+0.001*[#  24]
          +0.001*[#  28]
    |psi|^2 = 0.036
==== e(  33) =    22.79949 eV ==== 
     psi = 0.006*[#  23]+0.006*[#  27]+0.004*[#  24]+0.004*[#  28]
    |psi|^2 = 0.022
==== e(  34) =    22.79949 eV ==== 
     psi = 0.006*[#  23]+0.006*[#  27]+0.004*[#  24]+0.004*[#  28]
    |psi|^2 = 0.022
==== e(  35) =    25.73053 eV ==== 
     psi = 0.001*[#  22]+0.001*[#  26]
    |psi|^2 = 0.008
==== e(  36) =    25.73053 eV ==== 
     psi = 0.001*[#  22]+0.001*[#  26]
    |psi|^2 = 0.008
==== e(  37) =    30.49483 eV ==== 
 
    |psi|^2 = 0.000
==== e(  38) =    30.49483 eV ==== 
 
    |psi|^2 = 0.000
==== e(  39) =    31.35974 eV ==== 
     psi = 0.002*[#  22]+0.002*[#  26]
    |psi|^2 = 0.006
==== e(  40) =    31.35974 eV ==== 
     psi = 0.002*[#  22]+0.002*[#  26]
    |psi|^2 = 0.006
==== e(  41) =    34.50321 eV ==== 
 
    |psi|^2 = 0.003
==== e(  42) =    34.50321 eV ==== 
 
    |psi|^2 = 0.003
==== e(  43) =    36.03759 eV ==== 
     psi = 0.001*[#  23]+0.001*[#  27]
    |psi|^2 = 0.004
==== e(  44) =    36.03759 eV ==== 
     psi = 0.001*[#  23]+0.001*[#  27]
    |psi|^2 = 0.004
==== e(  45) =    37.65544 eV ==== 
 
    |psi|^2 = 0.002
==== e(  46) =    37.65544 eV ==== 
 
    |psi|^2 = 0.002
==== e(  47) =    39.85817 eV ==== 
 
    |psi|^2 = 0.001
==== e(  48) =    39.85817 eV ==== 
 
    |psi|^2 = 0.001
==== e(  49) =    41.68772 eV ==== 
 
    |psi|^2 = 0.001
==== e(  50) =    41.68772 eV ==== 
 
    |psi|^2 = 0.001
==== e(  51) =    42.30129 eV ==== 
 
    |psi|^2 = 0.001
==== e(  52) =    42.30129 eV ==== 
 
    |psi|^2 = 0.001

 k =   0.3500000000  0.2020725942  0.3121020699
==== e(   1) =  -115.91941 eV ==== 
     psi = 0.498*[#   1]+0.498*[#  11]
    |psi|^2 = 1.000
==== e(   2) =  -115.91941 eV ==== 
     psi = 0.498*[#   1]+0.498*[#  11]
    |psi|^2 = 1.000
==== e(   3) =   -69.59875 eV ==== 
     psi = 0.210*[#   4]+0.210*[#  14]+0.162*[#   2]+0.162*[#  12]+0.127*[#   3]
          +0.127*[#  13]
    |psi|^2 = 1.000
==== e(   4) =   -69.59875 eV ==== 
     psi = 0.210*[#   4]+0.210*[#  14]+0.162*[#   2]+0.162*[#  12]+0.127*[#   3]
          +0.127*[#  13]
    |psi|^2 = 1.000
==== e(   5) =   -69.57612 eV ==== 
     psi = 0.337*[#   2]+0.337*[#  12]+0.102*[#   4]+0.102*[#  14]+0.061*[#   3]
          +0.061*[#  13]
    |psi|^2 = 1.000
==== e(   6) =   -69.57612 eV ==== 
     psi = 0.337*[#   2]+0.337*[#  12]+0.102*[#   4]+0.102*[#  14]+0.061*[#   3]
          +0.061*[#  13]
    |psi|^2 = 1.000
==== e(   7) =   -69.56107 eV ==== 
     psi = 0.312*[#   3]+0.312*[#  13]+0.187*[#   4]+0.187*[#  14]
    |psi|^2 = 1.000
==== e(   8) =   -69.56107 eV ==== 
     psi = 0.312*[#   3]+0.312*[#  13]+0.187*[#   4]+0.187*[#  14]
    |psi|^2 = 1.000
==== e(   9) =    -7.82752 eV ==== 
     psi = 0.442*[#  21]+0.442*[#  25]+0.041*[#  10]+0.041*[#  20]+0.004*[#   8]
          +0.004*[#  18]+0.004*[#   5]+0.004*[#  15]+0.003*[#   9]+0.003*[#  19]
          +0.002*[#   7]+0.002*[#  17]+0.001*[#   6]+0.001*[#  16]
    |psi|^2 = 0.996
==== e(  10) =    -7.82752 eV ==== 
     psi = 0.442*[#  21]+0.442*[#  25]+0.041*[#  10]+0.041*[#  20]+0.004*[#   8]
          +0.004*[#  18]+0.004*[#   5]+0.004*[#  15]+0.003*[#   9]+0.003*[#  19]
          +0.002*[#   7]+0.002*[#  17]+0.001*[#   6]+0.001*[#  16]
    |psi|^2 = 0.996
==== e(  11) =     2.93560 eV ==== 
     psi = 0.071*[#  24]+0.071*[#  28]+0.069*[#   8]+0.069*[#  18]+0.067*[#  22]
          +0.067*[#  26]+0.064*[#   7]+0.064*[#  17]+0.055*[#  10]+0.055*[#  20]
          +0.047*[#   5]+0.047*[#  15]+0.043*[#  23]+0.043*[#  27]+0.041*[#   9]
          +0.041*[#  19]+0.039*[#   6]+0.039*[#  16]+0.002*[#  21]+0.002*[#  25]
          
    |psi|^2 = 0.997
==== e(  12) =     2.93560 eV ==== 
     psi = 0.071*[#  24]+0.071*[#  28]+0.069*[#   8]+0.069*[#  18]+0.067*[#  22]
          +0.067*[#  26]+0.064*[#   7]+0.064*[#  17]+0.055*[#  10]+0.055*[#  20]
          +0.047*[#   5]+0.047*[#  15]+0.043*[#  23]+0.043*[#  27]+0.041*[#   9]
          +0.041*[#  19]+0.039*[#   6]+0.039*[#  16]+0.002*[#  21]+0.002*[#  25]
          
    |psi|^2 = 0.997
==== e(  13) =     3.60396 eV ==== 
     psi = 0.128*[#   9]+0.128*[#  19]+0.119*[#   6]+0.119*[#  16]+0.077*[#   8]
          +0.077*[#  18]+0.072*[#   7]+0.072*[#  17]+0.064*[#  23]+0.064*[#  27]
          +0.039*[#  24]+0.039*[#  28]
    |psi|^2 = 0.998
==== e(  14) =     3.60396 eV ==== 
     psi = 0.128*[#   9]+0.128*[#  19]+0.119*[#   6]+0.119*[#  16]+0.077*[#   8]
          +0.077*[#  18]+0.072*[#   7]+0.072*[#  17]+0.064*[#  23]+0.064*[#  27]
          +0.039*[#  24]+0.039*[#  28]
    |psi|^2 = 0.998
==== e(  15) =     3.63031 eV ==== 
     psi = 0.271*[#   5]+0.271*[#  15]+0.057*[#  22]+0.057*[#  26]+0.057*[#   8]
          +0.057*[#  18]+0.034*[#   9]+0.034*[#  19]+0.034*[#  24]+0.034*[#  28]
          +0.021*[#  23]+0.021*[#  27]+0.011*[#   7]+0.011*[#  17]+0.008*[#  10]
          +0.008*[#  20]+0.006*[#   6]+0.006*[#  16]
    |psi|^2 = 0.996
==== e(  16) =     3.63031 eV ==== 
     psi = 0.271*[#   5]+0.271*[#  15]+0.057*[#  22]+0.057*[#  26]+0.057*[#   8]
          +0.057*[#  18]+0.034*[#   9]+0.034*[#  19]+0.034*[#  24]+0.034*[#  28]
          +0.021*[#  23]+0.021*[#  27]+0.011*[#   7]+0.011*[#  17]+0.008*[#  10]
          +0.008*[#  20]+0.006*[#   6]+0.006*[#  16]
    |psi|^2 = 0.996
==== e(  17) =     4.45998 eV ==== 
     psi = 0.163*[#   6]+0.163*[#  16]+0.149*[#   9]+0.149*[#  19]+0.098*[#   7]
          +0.098*[#  17]+0.090*[#   8]+0.090*[#  18]
    |psi|^2 = 1.000
==== e(  18) =     4.45998 eV ==== 
     psi = 0.163*[#   6]+0.163*[#  16]+0.149*[#   9]+0.149*[#  19]+0.098*[#   7]
          +0.098*[#  17]+0.090*[#   8]+0.090*[#  18]
    |psi|^2 = 1.000
==== e(  19) =     4.51918 eV ==== 
     psi = 0.172*[#   7]+0.172*[#  17]+0.103*[#   6]+0.103*[#  16]+0.096*[#   8]
          +0.096*[#  18]+0.060*[#   5]+0.060*[#  15]+0.057*[#   9]+0.057*[#  19]
          +0.004*[#  10]+0.004*[#  20]+0.003*[#  21]+0.003*[#  25]+0.003*[#  22]
          +0.003*[#  26]
    |psi|^2 = 0.998
==== e(  20) =     4.51918 eV ==== 
     psi = 0.172*[#   7]+0.172*[#  17]+0.103*[#   6]+0.103*[#  16]+0.096*[#   8]
          +0.096*[#  18]+0.060*[#   5]+0.060*[#  15]+0.057*[#   9]+0.057*[#  19]
          +0.004*[#  10]+0.004*[#  20]+0.003*[#  21]+0.003*[#  25]+0.003*[#  22]
          +0.003*[#  26]
    |psi|^2 = 0.998
==== e(  21) =     5.87892 eV ==== 
     psi = 0.085*[#  24]+0.085*[#  28]+0.070*[#   8]+0.070*[#  18]+0.061*[#   7]
          +0.061*[#  17]+0.051*[#  23]+0.051*[#  27]+0.045*[#  10]+0.045*[#  20]
          +0.042*[#   9]+0.042*[#  19]+0.041*[#  22]+0.041*[#  26]+0.040*[#   5]
          +0.040*[#  15]+0.037*[#   6]+0.037*[#  16]+0.018*[#  21]+0.018*[#  25]
          
    |psi|^2 = 0.983
==== e(  22) =     5.87892 eV ==== 
     psi = 0.085*[#  24]+0.085*[#  28]+0.070*[#   8]+0.070*[#  18]+0.061*[#   7]
          +0.061*[#  17]+0.051*[#  23]+0.051*[#  27]+0.045*[#  10]+0.045*[#  20]
          +0.042*[#   9]+0.042*[#  19]+0.041*[#  22]+0.041*[#  26]+0.040*[#   5]
          +0.040*[#  15]+0.037*[#   6]+0.037*[#  16]+0.018*[#  21]+0.018*[#  25]
          
    |psi|^2 = 0.983
==== e(  23) =     7.86840 eV ==== 
     psi = 0.268*[#  22]+0.268*[#  26]+0.077*[#   5]+0.077*[#  15]+0.065*[#  24]
          +0.065*[#  28]+0.039*[#  23]+0.039*[#  27]+0.016*[#   8]+0.016*[#  18]
          +0.010*[#   9]+0.010*[#  19]+0.005*[#  10]+0.005*[#  20]+0.002*[#   7]
          +0.002*[#  17]+0.002*[#  21]+0.002*[#  25]+0.001*[#   6]+0.001*[#  16]
          
    |psi|^2 = 0.970
==== e(  24) =     7.86840 eV ==== 
     psi = 0.268*[#  22]+0.268*[#  26]+0.077*[#   5]+0.077*[#  15]+0.065*[#  24]
          +0.065*[#  28]+0.039*[#  23]+0.039*[#  27]+0.016*[#   8]+0.016*[#  18]
          +0.010*[#   9]+0.010*[#  19]+0.005*[#  10]+0.005*[#  20]+0.002*[#   7]
          +0.002*[#  17]+0.002*[#  21]+0.002*[#  25]+0.001*[#   6]+0.001*[#  16]
          
    |psi|^2 = 0.970
==== e(  25) =     7.96442 eV ==== 
     psi = 0.239*[#  23]+0.239*[#  27]+0.143*[#  24]+0.143*[#  28]+0.035*[#   9]
          +0.035*[#  19]+0.030*[#   6]+0.030*[#  16]+0.021*[#   8]+0.021*[#  18]
          +0.018*[#   7]+0.018*[#  17]
    |psi|^2 = 0.973
==== e(  26) =     7.96442 eV ==== 
     psi = 0.239*[#  23]+0.239*[#  27]+0.143*[#  24]+0.143*[#  28]+0.035*[#   9]
          +0.035*[#  19]+0.030*[#   6]+0.030*[#  16]+0.021*[#   8]+0.021*[#  18]
          +0.018*[#   7]+0.018*[#  17]
    |psi|^2 = 0.973
==== e(  27) =    14.54385 eV ==== 
     psi = 0.225*[#  10]+0.225*[#  20]+0.037*[#  22]+0.037*[#  26]+0.025*[#  21]
          +0.025*[#  25]+0.020*[#  24]+0.020*[#  28]+0.012*[#  23]+0.012*[#  27]
          
    |psi|^2 = 0.642
==== e(  28) =    14.54385 eV ==== 
     psi = 0.225*[#  10]+0.225*[#  20]+0.037*[#  22]+0.037*[#  26]+0.025*[#  21]
          +0.025*[#  25]+0.020*[#  24]+0.020*[#  28]+0.012*[#  23]+0.012*[#  27]
          
    |psi|^2 = 0.642
==== e(  29) =    17.96325 eV ==== 
     psi = 0.107*[#  10]+0.107*[#  20]+0.032*[#  24]+0.032*[#  28]+0.019*[#  23]
          +0.019*[#  27]+0.012*[#  22]+0.012*[#  26]+0.005*[#  21]+0.005*[#  25]
          
    |psi|^2 = 0.355
==== e(  30) =    17.96325 eV ==== 
     psi = 0.107*[#  10]+0.107*[#  20]+0.032*[#  24]+0.032*[#  28]+0.019*[#  23]
          +0.019*[#  27]+0.012*[#  22]+0.012*[#  26]+0.005*[#  21]+0.005*[#  25]
          
    |psi|^2 = 0.355
==== e(  31) =    20.54653 eV ==== 
     psi = 0.008*[#  22]+0.008*[#  26]+0.006*[#  10]+0.006*[#  20]+0.001*[#  24]
          +0.001*[#  28]
    |psi|^2 = 0.032
==== e(  32) =    20.54653 eV ==== 
     psi = 0.008*[#  22]+0.008*[#  26]+0.006*[#  10]+0.006*[#  20]+0.001*[#  24]
          +0.001*[#  28]
    |psi|^2 = 0.032
==== e(  33) =    22.85874 eV ==== 
     psi = 0.007*[#  23]+0.007*[#  27]+0.004*[#  24]+0.004*[#  28]
    |psi|^2 = 0.023
==== e(  34) =    22.85874 eV ==== 
     psi = 0.007*[#  23]+0.007*[#  27]+0.004*[#  24]+0.004*[#  28]
    |psi|^2 = 0.023
==== e(  35) =    25.49568 eV ==== 
     psi = 0.002*[#  10]+0.002*[#  20]+0.002*[#  22]+0.002*[#  26]+0.001*[#  24]
          +0.001*[#  28]
    |psi|^2 = 0.012
==== e(  36) =    25.49568 eV ==== 
     psi = 0.002*[#  10]+0.002*[#  20]+0.002*[#  22]+0.002*[#  26]+0.001*[#  24]
          +0.001*[#  28]
    |psi|^2 = 0.012
==== e(  37) =    30.99461 eV ==== 
 
    |psi|^2 = 0.001
==== e(  38) =    30.99461 eV ==== 
 
    |psi|^2 = 0.001
==== e(  39) =    31.20187 eV ==== 
     psi = 0.002*[#  22]+0.002*[#  26]
    |psi|^2 = 0.007
==== e(  40) =    31.20187 eV ==== 
     psi = 0.002*[#  22]+0.002*[#  26]
    |psi|^2 = 0.007
==== e(  41) =    34.84195 eV ==== 
 
    |psi|^2 = 0.003
==== e(  42) =    34.84195 eV ==== 
 
    |psi|^2 = 0.003
==== e(  43) =    36.11056 eV ==== 
 
    |psi|^2 = 0.003
==== e(  44) =    36.11056 eV ==== 
 
    |psi|^2 = 0.003
==== e(  45) =    38.32399 eV ==== 
 
    |psi|^2 = 0.002
==== e(  46) =    38.32399 eV ==== 
 
    |psi|^2 = 0.002
==== e(  47) =    40.45514 eV ==== 
 
    |psi|^2 = 0.001
==== e(  48) =    40.45514 eV ==== 
 
    |psi|^2 = 0.001
==== e(  49) =    41.82606 eV ==== 
 
    |psi|^2 = 0.000
==== e(  50) =    41.82606 eV ==== 
 
    |psi|^2 = 0.000
==== e(  51) =    43.10749 eV ==== 
 
    |psi|^2 = 0.001
==== e(  52) =    43.10749 eV ==== 
 
    |psi|^2 = 0.001

 k =   0.4000000000  0.2309401077  0.3121020699
==== e(   1) =  -115.91940 eV ==== 
     psi = 0.498*[#   1]+0.498*[#  11]
    |psi|^2 = 1.000
==== e(   2) =  -115.91940 eV ==== 
     psi = 0.498*[#   1]+0.498*[#  11]
    |psi|^2 = 1.000
==== e(   3) =   -69.59195 eV ==== 
     psi = 0.207*[#   4]+0.207*[#  14]+0.168*[#   2]+0.168*[#  12]+0.125*[#   3]
          +0.125*[#  13]
    |psi|^2 = 1.000
==== e(   4) =   -69.59195 eV ==== 
     psi = 0.207*[#   4]+0.207*[#  14]+0.168*[#   2]+0.168*[#  12]+0.125*[#   3]
          +0.125*[#  13]
    |psi|^2 = 1.000
==== e(   5) =   -69.58335 eV ==== 
     psi = 0.332*[#   2]+0.332*[#  12]+0.105*[#   4]+0.105*[#  14]+0.063*[#   3]
          +0.063*[#  13]
    |psi|^2 = 1.000
==== e(   6) =   -69.58335 eV ==== 
     psi = 0.332*[#   2]+0.332*[#  12]+0.105*[#   4]+0.105*[#  14]+0.063*[#   3]
          +0.063*[#  13]
    |psi|^2 = 1.000
==== e(   7) =   -69.56994 eV ==== 
     psi = 0.312*[#   3]+0.312*[#  13]+0.188*[#   4]+0.188*[#  14]
    |psi|^2 = 1.000
==== e(   8) =   -69.56994 eV ==== 
     psi = 0.312*[#   3]+0.312*[#  13]+0.188*[#   4]+0.188*[#  14]
    |psi|^2 = 1.000
==== e(   9) =    -7.77280 eV ==== 
     psi = 0.454*[#  21]+0.454*[#  25]+0.029*[#  10]+0.029*[#  20]+0.005*[#   8]
          +0.005*[#  18]+0.003*[#   5]+0.003*[#  15]+0.003*[#   9]+0.003*[#  19]
          +0.002*[#   7]+0.002*[#  17]+0.001*[#   6]+0.001*[#  16]
    |psi|^2 = 0.996
==== e(  10) =    -7.77280 eV ==== 
     psi = 0.454*[#  21]+0.454*[#  25]+0.029*[#  10]+0.029*[#  20]+0.005*[#   8]
          +0.005*[#  18]+0.003*[#   5]+0.003*[#  15]+0.003*[#   9]+0.003*[#  19]
          +0.002*[#   7]+0.002*[#  17]+0.001*[#   6]+0.001*[#  16]
    |psi|^2 = 0.996
==== e(  11) =     2.93995 eV ==== 
     psi = 0.075*[#  24]+0.075*[#  28]+0.070*[#   7]+0.070*[#  17]+0.067*[#  22]
          +0.067*[#  26]+0.060*[#   8]+0.060*[#  18]+0.055*[#  10]+0.055*[#  20]
          +0.046*[#   5]+0.046*[#  15]+0.045*[#  23]+0.045*[#  27]+0.042*[#   6]
          +0.042*[#  16]+0.036*[#   9]+0.036*[#  19]+0.001*[#  21]+0.001*[#  25]
          
    |psi|^2 = 0.996
==== e(  12) =     2.93995 eV ==== 
     psi = 0.075*[#  24]+0.075*[#  28]+0.070*[#   7]+0.070*[#  17]+0.067*[#  22]
          +0.067*[#  26]+0.060*[#   8]+0.060*[#  18]+0.055*[#  10]+0.055*[#  20]
          +0.046*[#   5]+0.046*[#  15]+0.045*[#  23]+0.045*[#  27]+0.042*[#   6]
          +0.042*[#  16]+0.036*[#   9]+0.036*[#  19]+0.001*[#  21]+0.001*[#  25]
          
    |psi|^2 = 0.996
==== e(  13) =     3.64705 eV ==== 
     psi = 0.137*[#   6]+0.137*[#  16]+0.112*[#   9]+0.112*[#  19]+0.082*[#   7]
          +0.082*[#  17]+0.067*[#   8]+0.067*[#  18]+0.063*[#  23]+0.063*[#  27]
          +0.038*[#  24]+0.038*[#  28]
    |psi|^2 = 0.998
==== e(  14) =     3.64705 eV ==== 
     psi = 0.137*[#   6]+0.137*[#  16]+0.112*[#   9]+0.112*[#  19]+0.082*[#   7]
          +0.082*[#  17]+0.067*[#   8]+0.067*[#  18]+0.063*[#  23]+0.063*[#  27]
          +0.038*[#  24]+0.038*[#  28]
    |psi|^2 = 0.998
==== e(  15) =     3.70539 eV ==== 
     psi = 0.278*[#   5]+0.278*[#  15]+0.053*[#  22]+0.053*[#  26]+0.040*[#  24]
          +0.040*[#  28]+0.039*[#   8]+0.039*[#  18]+0.024*[#  23]+0.024*[#  27]
          +0.023*[#   9]+0.023*[#  19]+0.018*[#   7]+0.018*[#  17]+0.011*[#   6]
          +0.011*[#  16]+0.009*[#  10]+0.009*[#  20]
    |psi|^2 = 0.994
==== e(  16) =     3.70539 eV ==== 
     psi = 0.278*[#   5]+0.278*[#  15]+0.053*[#  22]+0.053*[#  26]+0.040*[#  24]
          +0.040*[#  28]+0.039*[#   8]+0.039*[#  18]+0.024*[#  23]+0.024*[#  27]
          +0.023*[#   9]+0.023*[#  19]+0.018*[#   7]+0.018*[#  17]+0.011*[#   6]
          +0.011*[#  16]+0.009*[#  10]+0.009*[#  20]
    |psi|^2 = 0.994
==== e(  17) =     4.46702 eV ==== 
     psi = 0.171*[#   9]+0.171*[#  19]+0.142*[#   6]+0.142*[#  16]+0.102*[#   8]
          +0.102*[#  18]+0.085*[#   7]+0.085*[#  17]
    |psi|^2 = 1.000
==== e(  18) =     4.46702 eV ==== 
     psi = 0.171*[#   9]+0.171*[#  19]+0.142*[#   6]+0.142*[#  16]+0.102*[#   8]
          +0.102*[#  18]+0.085*[#   7]+0.085*[#  17]
    |psi|^2 = 1.000
==== e(  19) =     4.54925 eV ==== 
     psi = 0.133*[#   7]+0.133*[#  17]+0.129*[#   8]+0.129*[#  18]+0.080*[#   6]
          +0.080*[#  16]+0.077*[#   9]+0.077*[#  19]+0.066*[#   5]+0.066*[#  15]
          +0.005*[#  21]+0.005*[#  25]+0.004*[#  10]+0.004*[#  20]+0.003*[#  22]
          +0.003*[#  26]
    |psi|^2 = 0.996
==== e(  20) =     4.54925 eV ==== 
     psi = 0.133*[#   7]+0.133*[#  17]+0.129*[#   8]+0.129*[#  18]+0.080*[#   6]
          +0.080*[#  16]+0.077*[#   9]+0.077*[#  19]+0.066*[#   5]+0.066*[#  15]
          +0.005*[#  21]+0.005*[#  25]+0.004*[#  10]+0.004*[#  20]+0.003*[#  22]
          +0.003*[#  26]
    |psi|^2 = 0.996
==== e(  21) =     5.56668 eV ==== 
     psi = 0.087*[#   7]+0.087*[#  17]+0.084*[#  24]+0.084*[#  28]+0.064*[#   8]
          +0.064*[#  18]+0.052*[#   6]+0.052*[#  16]+0.050*[#  23]+0.050*[#  27]
          +0.046*[#  10]+0.046*[#  20]+0.038*[#   9]+0.038*[#  19]+0.032*[#  22]
          +0.032*[#  26]+0.029*[#   5]+0.029*[#  15]+0.011*[#  21]+0.011*[#  25]
          
    |psi|^2 = 0.985
==== e(  22) =     5.56668 eV ==== 
[...]
    |psi|^2 = 0.995
==== e(  13) =     3.58533 eV ==== 
     psi = 0.133*[#   5]+0.133*[#  15]+0.083*[#  22]+0.083*[#  26]+0.062*[#   6]
          +0.062*[#   7]+0.062*[#  16]+0.062*[#  17]+0.049*[#   8]+0.049*[#  18]
          +0.049*[#   9]+0.049*[#  19]+0.026*[#  23]+0.026*[#  24]+0.026*[#  27]
          +0.026*[#  28]+0.007*[#  10]+0.007*[#  20]
    |psi|^2 = 0.995
==== e(  14) =     3.99517 eV ==== 
     psi = 0.150*[#   6]+0.150*[#   7]+0.150*[#  16]+0.150*[#  17]+0.087*[#  24]
          +0.087*[#  28]+0.087*[#  23]+0.087*[#  27]+0.009*[#   8]+0.010*[#   9]
          +0.009*[#  18]+0.010*[#  19]
    |psi|^2 = 0.986
==== e(  15) =     4.18034 eV ==== 
     psi = 0.180*[#   5]+0.180*[#  15]+0.109*[#   6]+0.109*[#  16]+0.109*[#   7]
          +0.109*[#  17]+0.020*[#  23]+0.020*[#  24]+0.020*[#  27]+0.020*[#  28]
          +0.020*[#  10]+0.020*[#  20]+0.015*[#  22]+0.015*[#  26]+0.014*[#   8]
          +0.014*[#  18]+0.013*[#   9]+0.013*[#  19]
    |psi|^2 = 0.999
==== e(  16) =     4.18039 eV ==== 
     psi = 0.180*[#   5]+0.180*[#  15]+0.109*[#   7]+0.109*[#  17]+0.109*[#   6]
          +0.109*[#  16]+0.020*[#  23]+0.020*[#  27]+0.020*[#  24]+0.020*[#  28]
          +0.020*[#  10]+0.020*[#  20]+0.015*[#  22]+0.015*[#  26]+0.014*[#   9]
          +0.014*[#  19]+0.013*[#   8]+0.013*[#  18]
    |psi|^2 = 0.999
==== e(  17) =     4.27512 eV ==== 
     psi = 0.240*[#   9]+0.240*[#  19]+0.239*[#   8]+0.239*[#  18]+0.005*[#   6]
          +0.005*[#  16]+0.005*[#   7]+0.005*[#  17]+0.004*[#  23]+0.004*[#  24]
          +0.004*[#  27]+0.004*[#  28]
    |psi|^2 = 0.994
==== e(  18) =     4.32935 eV ==== 
     psi = 0.242*[#   8]+0.242*[#  18]+0.242*[#   9]+0.242*[#  19]+0.008*[#   7]
          +0.008*[#  17]+0.008*[#   6]+0.008*[#  16]
    |psi|^2 = 0.999
==== e(  19) =     4.53849 eV ==== 
     psi = 0.110*[#   8]+0.110*[#  18]+0.110*[#   9]+0.110*[#  19]+0.094*[#   5]
          +0.094*[#  15]+0.044*[#  23]+0.044*[#  24]+0.044*[#  27]+0.044*[#  28]
          +0.037*[#  10]+0.037*[#  20]+0.021*[#   6]+0.021*[#   7]+0.021*[#  16]
          +0.021*[#  17]+0.015*[#  22]+0.015*[#  26]+0.004*[#  21]+0.004*[#  25]
          
    |psi|^2 = 0.999
==== e(  20) =     4.53861 eV ==== 
     psi = 0.111*[#   9]+0.111*[#  19]+0.110*[#   8]+0.110*[#  18]+0.093*[#   5]
          +0.093*[#  15]+0.044*[#  23]+0.044*[#  24]+0.044*[#  27]+0.044*[#  28]
          +0.037*[#  10]+0.037*[#  20]+0.021*[#   6]+0.021*[#   7]+0.021*[#  16]
          +0.021*[#  17]+0.015*[#  22]+0.015*[#  26]+0.004*[#  21]+0.004*[#  25]
          
    |psi|^2 = 0.999
==== e(  21) =     5.35760 eV ==== 
     psi = 0.141*[#  24]+0.141*[#  28]+0.141*[#  23]+0.141*[#  27]+0.095*[#   6]
          +0.095*[#  16]+0.095*[#   7]+0.095*[#  17]
    |psi|^2 = 0.945
==== e(  22) =     5.48978 eV ==== 
     psi = 0.083*[#  23]+0.083*[#  27]+0.083*[#  24]+0.083*[#  28]+0.063*[#  10]
          +0.063*[#  20]+0.053*[#   9]+0.053*[#  19]+0.053*[#   8]+0.053*[#  18]
          +0.043*[#   7]+0.043*[#  17]+0.043*[#   6]+0.043*[#  16]+0.030*[#   5]
          +0.030*[#  15]+0.026*[#  22]+0.026*[#  26]+0.019*[#  21]+0.019*[#  25]
          
    |psi|^2 = 0.994
==== e(  23) =     5.49005 eV ==== 
     psi = 0.083*[#  23]+0.083*[#  24]+0.083*[#  27]+0.083*[#  28]+0.063*[#  10]
          +0.063*[#  20]+0.053*[#   8]+0.053*[#  18]+0.053*[#   9]+0.053*[#  19]
          +0.043*[#   6]+0.043*[#   7]+0.043*[#  16]+0.043*[#  17]+0.030*[#   5]
          +0.030*[#  15]+0.026*[#  22]+0.026*[#  26]+0.019*[#  21]+0.019*[#  25]
          
    |psi|^2 = 0.994
==== e(  24) =     7.35014 eV ==== 
     psi = 0.326*[#  22]+0.326*[#  26]+0.057*[#   5]+0.057*[#  15]+0.019*[#   8]
          +0.018*[#   9]+0.019*[#  18]+0.018*[#  19]+0.016*[#  23]+0.016*[#  24]
          +0.016*[#  27]+0.016*[#  28]+0.013*[#   6]+0.013*[#   7]+0.013*[#  16]
          +0.013*[#  17]
    |psi|^2 = 0.956
==== e(  25) =     7.35127 eV ==== 
     psi = 0.326*[#  22]+0.326*[#  26]+0.057*[#   5]+0.057*[#  15]+0.019*[#   8]
          +0.018*[#   9]+0.019*[#  18]+0.018*[#  19]+0.016*[#  23]+0.016*[#  27]
          +0.015*[#  24]+0.015*[#  28]+0.013*[#   6]+0.013*[#  16]+0.013*[#   7]
          +0.013*[#  17]
    |psi|^2 = 0.956
==== e(  26) =     7.41341 eV ==== 
     psi = 0.181*[#  24]+0.181*[#  28]+0.181*[#  23]+0.181*[#  27]+0.055*[#   7]
          +0.055*[#  17]+0.055*[#   6]+0.055*[#  16]+0.002*[#   8]+0.002*[#   9]
          +0.002*[#  18]+0.002*[#  19]
    |psi|^2 = 0.951
==== e(  27) =    16.82150 eV ==== 
     psi = 0.331*[#  10]+0.331*[#  20]+0.055*[#  23]+0.055*[#  24]+0.055*[#  27]
          +0.055*[#  28]+0.009*[#  21]+0.009*[#  25]+0.007*[#  22]+0.007*[#  26]
          +0.002*[#   1]+0.002*[#  11]
    |psi|^2 = 0.921
==== e(  28) =    16.82201 eV ==== 
     psi = 0.331*[#  10]+0.331*[#  20]+0.055*[#  23]+0.055*[#  24]+0.055*[#  27]
          +0.055*[#  28]+0.009*[#  21]+0.009*[#  25]+0.007*[#  22]+0.007*[#  26]
          +0.002*[#   1]+0.002*[#  11]
    |psi|^2 = 0.921
==== e(  29) =    16.97463 eV ==== 
     psi = 0.005*[#  23]+0.005*[#  24]+0.005*[#  27]+0.005*[#  28]+0.001*[#   6]
          +0.001*[#   7]+0.001*[#  16]+0.001*[#  17]
    |psi|^2 = 0.026
==== e(  30) =    17.40344 eV ==== 
     psi = 0.015*[#  23]+0.015*[#  24]+0.015*[#  27]+0.015*[#  28]
    |psi|^2 = 0.065
==== e(  31) =    19.84642 eV ==== 
     psi = 0.023*[#  22]+0.023*[#  26]+0.022*[#  10]+0.022*[#  20]+0.001*[#   5]
          +0.001*[#  15]+0.001*[#  23]+0.001*[#  24]+0.001*[#  27]+0.001*[#  28]
          
    |psi|^2 = 0.099
==== e(  32) =    19.84807 eV ==== 
     psi = 0.023*[#  22]+0.023*[#  26]+0.022*[#  10]+0.022*[#  20]+0.001*[#   5]
          +0.001*[#  15]+0.001*[#  23]+0.001*[#  24]+0.001*[#  27]+0.001*[#  28]
          
    |psi|^2 = 0.100
==== e(  33) =    22.31745 eV ==== 
     psi = 0.005*[#  23]+0.005*[#  24]+0.005*[#  27]+0.005*[#  28]
    |psi|^2 = 0.020
==== e(  34) =    23.02872 eV ==== 
     psi = 0.002*[#  10]+0.002*[#  20]+0.002*[#  23]+0.002*[#  24]+0.002*[#  27]
          +0.002*[#  28]+0.001*[#  21]+0.001*[#  25]+0.001*[#  22]+0.001*[#  26]
          
    |psi|^2 = 0.017
==== e(  35) =    23.03023 eV ==== 
     psi = 0.002*[#  10]+0.002*[#  20]+0.002*[#  23]+0.002*[#  24]+0.002*[#  27]
          +0.002*[#  28]+0.001*[#  21]+0.001*[#  25]+0.001*[#  22]+0.001*[#  26]
          
    |psi|^2 = 0.017
==== e(  36) =    30.01940 eV ==== 
 
    |psi|^2 = 0.004
==== e(  37) =    30.48276 eV ==== 
     psi = 0.001*[#  10]+0.001*[#  20]
    |psi|^2 = 0.006
==== e(  38) =    30.48314 eV ==== 
     psi = 0.001*[#  10]+0.001*[#  20]
    |psi|^2 = 0.006
==== e(  39) =    31.92321 eV ==== 
 
    |psi|^2 = 0.003
==== e(  40) =    33.93954 eV ==== 
 
    |psi|^2 = 0.001
==== e(  41) =    35.08144 eV ==== 
 
    |psi|^2 = 0.003
==== e(  42) =    35.08161 eV ==== 
 
    |psi|^2 = 0.003
==== e(  43) =    35.91773 eV ==== 
 
    |psi|^2 = 0.003
==== e(  44) =    35.91799 eV ==== 
 
    |psi|^2 = 0.003
==== e(  45) =    36.39282 eV ==== 
 
    |psi|^2 = 0.002
==== e(  46) =    36.95217 eV ==== 
 
    |psi|^2 = 0.004
==== e(  47) =    38.25402 eV ==== 
     psi = 0.001*[#  22]+0.001*[#  26]
    |psi|^2 = 0.004
==== e(  48) =    38.25732 eV ==== 
     psi = 0.001*[#  22]+0.001*[#  26]
    |psi|^2 = 0.004
==== e(  49) =    44.20643 eV ==== 
 
    |psi|^2 = 0.002
==== e(  50) =    44.20735 eV ==== 
 
    |psi|^2 = 0.002
==== e(  51) =    46.40551 eV ==== 
 
    |psi|^2 = 0.000
==== e(  52) =    46.86915 eV ==== 
 
    |psi|^2 = 0.000

 k =   0.3333333333  0.5773502692  0.0000000000
==== e(   1) =  -115.91936 eV ==== 
     psi = 0.497*[#   1]+0.497*[#  11]
    |psi|^2 = 1.000
==== e(   2) =  -115.91936 eV ==== 
     psi = 0.497*[#   1]+0.497*[#  11]
    |psi|^2 = 1.000
==== e(   3) =   -69.58327 eV ==== 
     psi = 0.250*[#   3]+0.250*[#  13]+0.249*[#   4]+0.249*[#  14]
    |psi|^2 = 1.000
==== e(   4) =   -69.58170 eV ==== 
     psi = 0.499*[#   2]+0.499*[#  12]
    |psi|^2 = 1.000
==== e(   5) =   -69.58162 eV ==== 
     psi = 0.499*[#   2]+0.499*[#  12]
    |psi|^2 = 1.000
==== e(   6) =   -69.57177 eV ==== 
     psi = 0.250*[#   3]+0.250*[#  13]+0.249*[#   4]+0.249*[#  14]
    |psi|^2 = 1.000
==== e(   7) =   -69.57176 eV ==== 
     psi = 0.250*[#   4]+0.250*[#  14]+0.249*[#   3]+0.249*[#  13]
    |psi|^2 = 1.000
==== e(   8) =   -69.56020 eV ==== 
     psi = 0.250*[#   4]+0.250*[#  14]+0.249*[#   3]+0.249*[#  13]
    |psi|^2 = 1.000
==== e(   9) =    -7.67906 eV ==== 
     psi = 0.465*[#  21]+0.465*[#  25]+0.013*[#  10]+0.013*[#  20]+0.005*[#   8]
          +0.005*[#   9]+0.005*[#  18]+0.005*[#  19]+0.004*[#   5]+0.004*[#  15]
          +0.002*[#   6]+0.002*[#   7]+0.002*[#  16]+0.002*[#  17]
    |psi|^2 = 0.996
==== e(  10) =    -7.67884 eV ==== 
     psi = 0.465*[#  21]+0.465*[#  25]+0.013*[#  10]+0.013*[#  20]+0.005*[#   8]
          +0.005*[#   9]+0.005*[#  18]+0.005*[#  19]+0.004*[#   5]+0.004*[#  15]
          +0.002*[#   6]+0.002*[#   7]+0.002*[#  16]+0.002*[#  17]
    |psi|^2 = 0.996
==== e(  11) =     3.23151 eV ==== 
     psi = 0.185*[#   7]+0.185*[#  17]+0.185*[#   6]+0.185*[#  16]+0.058*[#  24]
          +0.058*[#  28]+0.058*[#  23]+0.058*[#  27]+0.006*[#   8]+0.006*[#   9]
          +0.006*[#  18]+0.006*[#  19]
    |psi|^2 = 0.998
==== e(  12) =     3.59772 eV ==== 
     psi = 0.159*[#   5]+0.159*[#  15]+0.083*[#  22]+0.083*[#  26]+0.053*[#   6]
          +0.053*[#  16]+0.053*[#   7]+0.053*[#  17]+0.048*[#   8]+0.048*[#   9]
          +0.048*[#  18]+0.048*[#  19]+0.025*[#  23]+0.025*[#  24]+0.025*[#  27]
          +0.025*[#  28]+0.004*[#  10]+0.004*[#  20]
    |psi|^2 = 0.995
==== e(  13) =     3.59795 eV ==== 
     psi = 0.158*[#   5]+0.158*[#  15]+0.083*[#  22]+0.083*[#  26]+0.053*[#   6]
          +0.053*[#   7]+0.053*[#  16]+0.053*[#  17]+0.048*[#   8]+0.048*[#  18]
          +0.048*[#   9]+0.048*[#  19]+0.025*[#  23]+0.025*[#  24]+0.025*[#  27]
          +0.025*[#  28]+0.004*[#  10]+0.004*[#  20]
    |psi|^2 = 0.995
==== e(  14) =     4.03155 eV ==== 
     psi = 0.145*[#   6]+0.146*[#   7]+0.145*[#  16]+0.146*[#  17]+0.091*[#  24]
          +0.091*[#  28]+0.091*[#  23]+0.091*[#  27]+0.010*[#   8]+0.010*[#   9]
          +0.010*[#  18]+0.010*[#  19]
    |psi|^2 = 0.985
==== e(  15) =     4.23139 eV ==== 
     psi = 0.168*[#   5]+0.168*[#  15]+0.138*[#   6]+0.138*[#  16]+0.138*[#   7]
          +0.138*[#  17]+0.015*[#  10]+0.015*[#  20]+0.013*[#  23]+0.013*[#  24]
          +0.013*[#  27]+0.013*[#  28]+0.008*[#  22]+0.008*[#  26]+0.004*[#   8]
          +0.004*[#  18]+0.003*[#   9]+0.003*[#  19]
    |psi|^2 = 0.998
==== e(  16) =     4.23141 eV ==== 
     psi = 0.168*[#   5]+0.168*[#  15]+0.138*[#   7]+0.138*[#  17]+0.137*[#   6]
          +0.137*[#  16]+0.015*[#  10]+0.015*[#  20]+0.013*[#  23]+0.013*[#  24]
          +0.013*[#  27]+0.013*[#  28]+0.008*[#  22]+0.008*[#  26]+0.004*[#   9]
          +0.004*[#  19]+0.004*[#   8]+0.004*[#  18]
    |psi|^2 = 0.998
==== e(  17) =     4.27641 eV ==== 
     psi = 0.239*[#   9]+0.239*[#  19]+0.239*[#   8]+0.239*[#  18]+0.005*[#  23]
          +0.005*[#  24]+0.005*[#  27]+0.005*[#  28]+0.005*[#   6]+0.005*[#  16]
          +0.004*[#   7]+0.004*[#  17]
    |psi|^2 = 0.993
==== e(  18) =     4.35713 eV ==== 
     psi = 0.243*[#   8]+0.243*[#  18]+0.241*[#   9]+0.241*[#  19]+0.008*[#   7]
          +0.008*[#  17]+0.008*[#   6]+0.008*[#  16]
    |psi|^2 = 0.999
==== e(  19) =     4.50000 eV ==== 
     psi = 0.120*[#   8]+0.120*[#  18]+0.119*[#   9]+0.119*[#  19]+0.083*[#   5]
          +0.083*[#  15]+0.054*[#  23]+0.054*[#  24]+0.054*[#  27]+0.054*[#  28]
          +0.045*[#  10]+0.045*[#  20]+0.021*[#  22]+0.021*[#  26]+0.003*[#  21]
          +0.003*[#  25]
    |psi|^2 = 0.999
==== e(  20) =     4.50020 eV ==== 
     psi = 0.120*[#   9]+0.120*[#  19]+0.119*[#   8]+0.119*[#  18]+0.083*[#   5]
          +0.083*[#  15]+0.054*[#  23]+0.054*[#  24]+0.054*[#  27]+0.054*[#  28]
          +0.045*[#  10]+0.045*[#  20]+0.021*[#  22]+0.021*[#  26]+0.003*[#  21]
          +0.003*[#  25]
    |psi|^2 = 0.999
==== e(  21) =     5.35125 eV ==== 
     psi = 0.137*[#  24]+0.137*[#  28]+0.136*[#  23]+0.136*[#  27]+0.100*[#   6]
          +0.100*[#  16]+0.099*[#   7]+0.099*[#  17]
    |psi|^2 = 0.946
==== e(  22) =     5.50808 eV ==== 
     psi = 0.083*[#  23]+0.083*[#  27]+0.083*[#  24]+0.083*[#  28]+0.062*[#  10]
          +0.062*[#  20]+0.054*[#   9]+0.054*[#  19]+0.054*[#   8]+0.054*[#  18]
          +0.043*[#   6]+0.043*[#   7]+0.043*[#  16]+0.043*[#  17]+0.030*[#   5]
          +0.030*[#  15]+0.025*[#  22]+0.025*[#  26]+0.020*[#  21]+0.020*[#  25]
          
    |psi|^2 = 0.995
==== e(  23) =     5.50839 eV ==== 
     psi = 0.083*[#  23]+0.083*[#  24]+0.083*[#  27]+0.083*[#  28]+0.062*[#  10]
          +0.062*[#  20]+0.054*[#   8]+0.054*[#  18]+0.054*[#   9]+0.054*[#  19]
          +0.043*[#   6]+0.043*[#   7]+0.043*[#  16]+0.043*[#  17]+0.030*[#   5]
          +0.030*[#  15]+0.025*[#  22]+0.025*[#  26]+0.020*[#  21]+0.020*[#  25]
          
    |psi|^2 = 0.995
==== e(  24) =     7.30495 eV ==== 
     psi = 0.328*[#  22]+0.328*[#  26]+0.054*[#   5]+0.054*[#  15]+0.019*[#   8]
          +0.019*[#   9]+0.019*[#  18]+0.019*[#  19]+0.014*[#   6]+0.014*[#   7]
          +0.014*[#  16]+0.014*[#  17]+0.014*[#  23]+0.014*[#  24]+0.014*[#  27]
          +0.014*[#  28]
    |psi|^2 = 0.955
==== e(  25) =     7.30611 eV ==== 
     psi = 0.328*[#  22]+0.328*[#  26]+0.054*[#   5]+0.054*[#  15]+0.019*[#   8]
          +0.019*[#   9]+0.019*[#  18]+0.019*[#  19]+0.014*[#   6]+0.014*[#  16]
          +0.014*[#   7]+0.014*[#  17]+0.014*[#  23]+0.014*[#  27]+0.014*[#  24]
          +0.014*[#  28]
    |psi|^2 = 0.955
==== e(  26) =     7.43940 eV ==== 
     psi = 0.181*[#  24]+0.181*[#  28]+0.181*[#  23]+0.181*[#  27]+0.055*[#   7]
          +0.055*[#  17]+0.055*[#   6]+0.055*[#  16]+0.002*[#   8]+0.002*[#   9]
          +0.002*[#  18]+0.002*[#  19]
    |psi|^2 = 0.952
==== e(  27) =    16.81763 eV ==== 
     psi = 0.334*[#  10]+0.334*[#  20]+0.056*[#  23]+0.056*[#  24]+0.056*[#  27]
          +0.056*[#  28]+0.009*[#  21]+0.009*[#  25]+0.007*[#  22]+0.007*[#  26]
          +0.002*[#   1]+0.002*[#  11]
    |psi|^2 = 0.931
==== e(  28) =    16.81813 eV ==== 
     psi = 0.334*[#  10]+0.334*[#  20]+0.056*[#  23]+0.056*[#  24]+0.056*[#  27]
          +0.056*[#  28]+0.009*[#  21]+0.009*[#  25]+0.007*[#  22]+0.007*[#  26]
          +0.002*[#   1]+0.002*[#  11]
    |psi|^2 = 0.932
==== e(  29) =    16.96889 eV ==== 
     psi = 0.005*[#  23]+0.005*[#  24]+0.005*[#  27]+0.005*[#  28]+0.001*[#   6]
          +0.001*[#   7]+0.001*[#  16]+0.001*[#  17]
    |psi|^2 = 0.024
==== e(  30) =    17.41463 eV ==== 
     psi = 0.015*[#  23]+0.015*[#  24]+0.015*[#  27]+0.015*[#  28]
    |psi|^2 = 0.065
==== e(  31) =    19.98576 eV ==== 
     psi = 0.024*[#  22]+0.024*[#  26]+0.018*[#  10]+0.018*[#  20]+0.001*[#   5]
          +0.001*[#  15]
    |psi|^2 = 0.089
==== e(  32) =    19.98741 eV ==== 
     psi = 0.024*[#  22]+0.024*[#  26]+0.018*[#  10]+0.018*[#  20]+0.001*[#   5]
          +0.001*[#  15]
    |psi|^2 = 0.089
==== e(  33) =    22.27161 eV ==== 
     psi = 0.005*[#  23]+0.005*[#  24]+0.005*[#  27]+0.005*[#  28]
    |psi|^2 = 0.021
==== e(  34) =    22.88904 eV ==== 
     psi = 0.003*[#  10]+0.003*[#  20]+0.002*[#  23]+0.002*[#  24]+0.002*[#  27]
          +0.002*[#  28]+0.001*[#  21]+0.001*[#  25]
    |psi|^2 = 0.018
==== e(  35) =    22.89060 eV ==== 
     psi = 0.003*[#  10]+0.003*[#  20]+0.002*[#  23]+0.002*[#  24]+0.002*[#  27]
          +0.002*[#  28]+0.001*[#  21]+0.001*[#  25]
    |psi|^2 = 0.018
==== e(  36) =    30.41809 eV ==== 
     psi = 0.001*[#  23]+0.001*[#  24]+0.001*[#  27]+0.001*[#  28]
    |psi|^2 = 0.006
==== e(  37) =    30.58446 eV ==== 
     psi = 0.001*[#  10]+0.001*[#  20]
    |psi|^2 = 0.006
==== e(  38) =    30.58485 eV ==== 
     psi = 0.001*[#  10]+0.001*[#  20]
    |psi|^2 = 0.006
==== e(  39) =    31.72994 eV ==== 
 
    |psi|^2 = 0.000
==== e(  40) =    34.01469 eV ==== 
 
    |psi|^2 = 0.001
==== e(  41) =    35.32817 eV ==== 
 
    |psi|^2 = 0.001
==== e(  42) =    35.32913 eV ==== 
 
    |psi|^2 = 0.001
==== e(  43) =    35.50944 eV ==== 
     psi = 0.001*[#  10]+0.001*[#  20]
    |psi|^2 = 0.004
==== e(  44) =    35.51083 eV ==== 
     psi = 0.001*[#  10]+0.001*[#  20]
    |psi|^2 = 0.004
==== e(  45) =    36.14230 eV ==== 
 
    |psi|^2 = 0.003
==== e(  46) =    36.84277 eV ==== 
 
    |psi|^2 = 0.004
==== e(  47) =    38.29242 eV ==== 
     psi = 0.001*[#  22]+0.001*[#  26]
    |psi|^2 = 0.004
==== e(  48) =    38.29584 eV ==== 
     psi = 0.001*[#  22]+0.001*[#  26]
    |psi|^2 = 0.004
==== e(  49) =    44.17684 eV ==== 
 
    |psi|^2 = 0.002
==== e(  50) =    44.17776 eV ==== 
 
    |psi|^2 = 0.002
==== e(  51) =    46.63099 eV ==== 
 
    |psi|^2 = 0.000
==== e(  52) =    46.87715 eV ==== 
 
    |psi|^2 = 0.000

Lowdin Charges: 

     Atom #   1: total charge =  18.6337, s =  2.6596, p =  5.9992, d =  9.9748, 
                 spin up      =   9.3168, s =  1.3298, 
                 spin up      =   9.3168, p =  2.9996, pz=  0.9998, px=  0.9999, py=  0.9999, 
                 spin up      =   9.3168, d =  4.9874, dz2=  0.9957, dxz=  0.9984, dyz=  0.9983, dx2-y2=  0.9972, dxy=  0.9977, 
                 spin down    =   9.3168, s =  1.3298, 
                 spin down    =   9.3168, p =  2.9996, pz=  0.9998, px=  0.9999, py=  0.9999, 
                 spin down    =   9.3168, d =  4.9874, dz2=  0.9957, dxz=  0.9984, dyz=  0.9983, dx2-y2=  0.9972, dxy=  0.9977, 
                 polarization =   0.0000, s =  0.0000, p = -0.0000, d = -0.0000, 
     Atom #   2: total charge =  18.6337, s =  2.6596, p =  5.9992, d =  9.9748, 
                 spin up      =   9.3168, s =  1.3298, 
                 spin up      =   9.3168, p =  2.9996, pz=  0.9998, px=  0.9999, py=  0.9999, 
                 spin up      =   9.3168, d =  4.9874, dz2=  0.9957, dxz=  0.9984, dyz=  0.9983, dx2-y2=  0.9972, dxy=  0.9977, 
                 spin down    =   9.3168, s =  1.3298, 
                 spin down    =   9.3168, p =  2.9996, pz=  0.9998, px=  0.9999, py=  0.9999, 
                 spin down    =   9.3168, d =  4.9874, dz2=  0.9957, dxz=  0.9984, dyz=  0.9983, dx2-y2=  0.9972, dxy=  0.9977, 
                 polarization =   0.0000, s =  0.0000, p = -0.0000, d = -0.0000, 
     Atom #   3: total charge =   7.1890, s =  1.8316, p =  5.3574, d =  0.0000, 
                 spin up      =   3.5945, s =  0.9158, 
                 spin up      =   3.5945, p =  2.6787, pz=  0.8608, px=  0.9223, py=  0.8955, 
                 spin up      =   3.5945, d =  0.0000, dz2=  0.0000, dxz=  0.0000, dyz=  0.0000, dx2-y2=  0.0000, dxy=  0.0000, 
                 spin down    =   3.5945, s =  0.9158, 
                 spin down    =   3.5945, p =  2.6787, pz=  0.8608, px=  0.9223, py=  0.8955, 
                 spin down    =   3.5945, d =  0.0000, dz2=  0.0000, dxz=  0.0000, dyz=  0.0000, dx2-y2=  0.0000, dxy=  0.0000, 
                 polarization =  -0.0000, s = -0.0000, p = -0.0000, d =  0.0000, 
     Atom #   4: total charge =   7.1890, s =  1.8316, p =  5.3574, d =  0.0000, 
                 spin up      =   3.5945, s =  0.9158, 
                 spin up      =   3.5945, p =  2.6787, pz=  0.8608, px=  0.9223, py=  0.8955, 
                 spin up      =   3.5945, d =  0.0000, dz2=  0.0000, dxz=  0.0000, dyz=  0.0000, dx2-y2=  0.0000, dxy=  0.0000, 
                 spin down    =   3.5945, s =  0.9158, 
                 spin down    =   3.5945, p =  2.6787, pz=  0.8608, px=  0.9223, py=  0.8955, 
                 spin down    =   3.5945, d =  0.0000, dz2=  0.0000, dxz=  0.0000, dyz=  0.0000, dx2-y2=  0.0000, dxy=  0.0000, 
                 polarization =  -0.0000, s = -0.0000, p = -0.0000, d =  0.0000, 
     Spilling Parameter:   0.0068
 
     PROJWFC      :      0.96s CPU      1.56s WALL

 
   This run was terminated on:  12: 4:29  12Dec2022            

=------------------------------------------------------------------------------=
   JOB DONE.
=------------------------------------------------------------------------------=
