
     Program PROJWFC v.7.1 starts on 12Dec2022 at 11:54:48 

     This program is part of the open-source Quantum ESPRESSO suite
     for quantum simulation of materials; please cite
         "P. Giannozzi et al., J. Phys.:Condens. Matter 21 395502 (2009);
         "P. Giannozzi et al., J. Phys.:Condens. Matter 29 465901 (2017);
         "P. Giannozzi et al., J. Chem. Phys. 152 154105 (2020);
          URL http://www.quantum-espresso.org", 
     in publications or presentations arising from this work. More details at
     http://www.quantum-espresso.org/quote

     Parallel version (MPI), running on    16 processors

     MPI processes distributed on     1 nodes
     R & G space division:  proc/nbgrp/npool/nimage =      16
     73142 MiB available memory on the printing compute node when the environment starts
 

     Reading xml data from directory:

     /scratch/elinscott/materials_cloud_archive/zno/coarse_grid/TMP/kc_bands.save/

     IMPORTANT: XC functional enforced from input :
     Exchange-correlation= PW
                           (   1   4   0   0   0   0   0)
     Any further DFT definition will be discarded
     Please, verify this is what you really want

 
     Parallelization info
     --------------------
     sticks:   dense  smooth     PW     G-vecs:    dense   smooth      PW
     Min          31      31     10                  949      949     162
     Max          32      32     11                  958      958     166
     Sum         511     511    163                15291    15291    2623
 
     Using Slab Decomposition
 

     Check: negative core charge=   -0.000270

     Gaussian broadening (read from input): ngauss,degauss=   0    0.010000


     Calling projwave .... 
     Subspace diagonalization in iterative solution of the eigenvalue problem:
     a serial algorithm will be used

 
  Problem Sizes 
  natomwfc =           28
  nbnd     =           52
  nkstot   =          106
  npwx     =          126
  nkb      =           62
 

     Atomic states used for projection
     (read from pseudopotential files):

     state #   1: atom   1 (Zn ), wfc  1 (l=0 m= 1)
     state #   2: atom   1 (Zn ), wfc  2 (l=1 m= 1)
     state #   3: atom   1 (Zn ), wfc  2 (l=1 m= 2)
     state #   4: atom   1 (Zn ), wfc  2 (l=1 m= 3)
     state #   5: atom   1 (Zn ), wfc  3 (l=2 m= 1)
     state #   6: atom   1 (Zn ), wfc  3 (l=2 m= 2)
     state #   7: atom   1 (Zn ), wfc  3 (l=2 m= 3)
     state #   8: atom   1 (Zn ), wfc  3 (l=2 m= 4)
     state #   9: atom   1 (Zn ), wfc  3 (l=2 m= 5)
     state #  10: atom   1 (Zn ), wfc  4 (l=0 m= 1)
     state #  11: atom   2 (Zn ), wfc  1 (l=0 m= 1)
     state #  12: atom   2 (Zn ), wfc  2 (l=1 m= 1)
     state #  13: atom   2 (Zn ), wfc  2 (l=1 m= 2)
     state #  14: atom   2 (Zn ), wfc  2 (l=1 m= 3)
     state #  15: atom   2 (Zn ), wfc  3 (l=2 m= 1)
     state #  16: atom   2 (Zn ), wfc  3 (l=2 m= 2)
     state #  17: atom   2 (Zn ), wfc  3 (l=2 m= 3)
     state #  18: atom   2 (Zn ), wfc  3 (l=2 m= 4)
     state #  19: atom   2 (Zn ), wfc  3 (l=2 m= 5)
     state #  20: atom   2 (Zn ), wfc  4 (l=0 m= 1)
     state #  21: atom   3 (O  ), wfc  1 (l=0 m= 1)
     state #  22: atom   3 (O  ), wfc  2 (l=1 m= 1)
     state #  23: atom   3 (O  ), wfc  2 (l=1 m= 2)
     state #  24: atom   3 (O  ), wfc  2 (l=1 m= 3)
     state #  25: atom   4 (O  ), wfc  1 (l=0 m= 1)
     state #  26: atom   4 (O  ), wfc  2 (l=1 m= 1)
     state #  27: atom   4 (O  ), wfc  2 (l=1 m= 2)
     state #  28: atom   4 (O  ), wfc  2 (l=1 m= 3)

 k =   0.0000000000  0.0000000000  0.3121020699
==== e(   1) =  -116.00728 eV ==== 
     psi = 0.499*[#   1]+0.499*[#  11]
    |psi|^2 = 1.000
==== e(   2) =  -116.00728 eV ==== 
     psi = 0.499*[#   1]+0.499*[#  11]
    |psi|^2 = 1.000
==== e(   3) =   -69.68387 eV ==== 
     psi = 0.499*[#   2]+0.499*[#  12]
    |psi|^2 = 1.000
==== e(   4) =   -69.68387 eV ==== 
     psi = 0.499*[#   2]+0.499*[#  12]
    |psi|^2 = 1.000
==== e(   5) =   -69.60568 eV ==== 
     psi = 0.375*[#   3]+0.375*[#  13]+0.125*[#   4]+0.125*[#  14]
    |psi|^2 = 1.000
==== e(   6) =   -69.60568 eV ==== 
     psi = 0.375*[#   3]+0.375*[#  13]+0.125*[#   4]+0.125*[#  14]
    |psi|^2 = 1.000
==== e(   7) =   -69.60560 eV ==== 
     psi = 0.375*[#   4]+0.375*[#  14]+0.125*[#   3]+0.125*[#  13]
    |psi|^2 = 1.000
==== e(   8) =   -69.60560 eV ==== 
     psi = 0.375*[#   4]+0.375*[#  14]+0.125*[#   3]+0.125*[#  13]
    |psi|^2 = 1.000
==== e(   9) =    -7.97744 eV ==== 
     psi = 0.381*[#  21]+0.381*[#  25]+0.111*[#  10]+0.111*[#  20]+0.006*[#   5]
          +0.006*[#  15]
    |psi|^2 = 0.998
==== e(  10) =    -7.97744 eV ==== 
     psi = 0.381*[#  21]+0.381*[#  25]+0.111*[#  10]+0.111*[#  20]+0.006*[#   5]
          +0.006*[#  15]
    |psi|^2 = 0.998
==== e(  11) =     3.12747 eV ==== 
     psi = 0.318*[#   5]+0.318*[#  15]+0.141*[#  22]+0.141*[#  26]+0.036*[#  10]
          +0.036*[#  20]+0.003*[#  21]+0.003*[#  25]
    |psi|^2 = 0.996
==== e(  12) =     3.12747 eV ==== 
     psi = 0.318*[#   5]+0.318*[#  15]+0.141*[#  22]+0.141*[#  26]+0.036*[#  10]
          +0.036*[#  20]+0.003*[#  21]+0.003*[#  25]
    |psi|^2 = 0.996
==== e(  13) =     3.35903 eV ==== 
     psi = 0.241*[#   8]+0.241*[#  18]+0.080*[#   9]+0.080*[#  19]+0.076*[#  24]
          +0.076*[#  28]+0.057*[#   7]+0.057*[#  17]+0.025*[#  23]+0.025*[#  27]
          +0.019*[#   6]+0.019*[#  16]
    |psi|^2 = 0.999
==== e(  14) =     3.35903 eV ==== 
     psi = 0.241*[#   8]+0.241*[#  18]+0.080*[#   9]+0.080*[#  19]+0.076*[#  24]
          +0.076*[#  28]+0.057*[#   7]+0.057*[#  17]+0.025*[#  23]+0.025*[#  27]
          +0.019*[#   6]+0.019*[#  16]
    |psi|^2 = 0.999
==== e(  15) =     3.35968 eV ==== 
     psi = 0.241*[#   9]+0.241*[#  19]+0.080*[#   8]+0.080*[#  18]+0.076*[#  23]
          +0.076*[#  27]+0.057*[#   6]+0.057*[#  16]+0.025*[#  24]+0.025*[#  28]
          +0.019*[#   7]+0.019*[#  17]
    |psi|^2 = 0.999
==== e(  16) =     3.35968 eV ==== 
     psi = 0.241*[#   9]+0.241*[#  19]+0.080*[#   8]+0.080*[#  18]+0.076*[#  23]
          +0.076*[#  27]+0.057*[#   6]+0.057*[#  16]+0.025*[#  24]+0.025*[#  28]
          +0.019*[#   7]+0.019*[#  17]
    |psi|^2 = 0.999
==== e(  17) =     4.37114 eV ==== 
     psi = 0.303*[#   6]+0.303*[#  16]+0.101*[#   7]+0.101*[#  17]+0.072*[#   9]
          +0.072*[#  19]+0.024*[#   8]+0.024*[#  18]
    |psi|^2 = 1.000
==== e(  18) =     4.37114 eV ==== 
     psi = 0.303*[#   6]+0.303*[#  16]+0.101*[#   7]+0.101*[#  17]+0.072*[#   9]
          +0.072*[#  19]+0.024*[#   8]+0.024*[#  18]
    |psi|^2 = 1.000
==== e(  19) =     4.37122 eV ==== 
     psi = 0.303*[#   7]+0.303*[#  17]+0.101*[#   6]+0.101*[#  16]+0.072*[#   8]
          +0.072*[#  18]+0.024*[#   9]+0.024*[#  19]
    |psi|^2 = 1.000
==== e(  20) =     4.37122 eV ==== 
     psi = 0.303*[#   7]+0.303*[#  17]+0.101*[#   6]+0.101*[#  16]+0.072*[#   8]
          +0.072*[#  18]+0.024*[#   9]+0.024*[#  19]
    |psi|^2 = 1.000
==== e(  21) =     6.97981 eV ==== 
     psi = 0.215*[#  22]+0.215*[#  26]+0.173*[#   5]+0.173*[#  15]+0.061*[#  10]
          +0.061*[#  20]+0.040*[#  21]+0.040*[#  25]
    |psi|^2 = 0.980
==== e(  22) =     6.97981 eV ==== 
     psi = 0.215*[#  22]+0.215*[#  26]+0.173*[#   5]+0.173*[#  15]+0.061*[#  10]
          +0.061*[#  20]+0.040*[#  21]+0.040*[#  25]
    |psi|^2 = 0.980
==== e(  23) =     9.10653 eV ==== 
     psi = 0.292*[#  24]+0.292*[#  28]+0.097*[#  23]+0.097*[#  27]+0.062*[#   8]
          +0.062*[#  18]+0.021*[#   9]+0.021*[#  19]+0.015*[#   7]+0.015*[#  17]
          +0.005*[#   6]+0.005*[#  16]
    |psi|^2 = 0.984
==== e(  24) =     9.10653 eV ==== 
     psi = 0.292*[#  24]+0.292*[#  28]+0.097*[#  23]+0.097*[#  27]+0.062*[#   8]
          +0.062*[#  18]+0.021*[#   9]+0.021*[#  19]+0.015*[#   7]+0.015*[#  17]
          +0.005*[#   6]+0.005*[#  16]
    |psi|^2 = 0.984
==== e(  25) =     9.10728 eV ==== 
     psi = 0.293*[#  23]+0.293*[#  27]+0.098*[#  24]+0.098*[#  28]+0.062*[#   9]
          +0.062*[#  19]+0.021*[#   8]+0.021*[#  18]+0.015*[#   6]+0.015*[#  16]
          +0.005*[#   7]+0.005*[#  17]
    |psi|^2 = 0.984
==== e(  26) =     9.10728 eV ==== 
     psi = 0.293*[#  23]+0.293*[#  27]+0.098*[#  24]+0.098*[#  28]+0.062*[#   9]
          +0.062*[#  19]+0.021*[#   8]+0.021*[#  18]+0.015*[#   6]+0.015*[#  16]
          +0.005*[#   7]+0.005*[#  17]
    |psi|^2 = 0.984
==== e(  27) =    12.75457 eV ==== 
     psi = 0.284*[#  10]+0.284*[#  20]+0.121*[#  22]+0.121*[#  26]+0.072*[#  21]
          +0.072*[#  25]+0.002*[#   5]+0.002*[#  15]
    |psi|^2 = 0.959
==== e(  28) =    12.75457 eV ==== 
     psi = 0.284*[#  10]+0.284*[#  20]+0.121*[#  22]+0.121*[#  26]+0.072*[#  21]
          +0.072*[#  25]+0.002*[#   5]+0.002*[#  15]
    |psi|^2 = 0.959
==== e(  29) =    19.22781 eV ==== 
     psi = 0.017*[#  22]+0.017*[#  26]+0.005*[#  10]+0.005*[#  20]
    |psi|^2 = 0.046
==== e(  30) =    19.22781 eV ==== 
     psi = 0.017*[#  22]+0.017*[#  26]+0.005*[#  10]+0.005*[#  20]
    |psi|^2 = 0.046
==== e(  31) =    22.30863 eV ==== 
     psi = 0.002*[#  23]+0.002*[#  27]
    |psi|^2 = 0.007
==== e(  32) =    22.30863 eV ==== 
     psi = 0.002*[#  23]+0.002*[#  27]
    |psi|^2 = 0.007
==== e(  33) =    22.31091 eV ==== 
     psi = 0.002*[#  24]+0.002*[#  28]
    |psi|^2 = 0.007
==== e(  34) =    22.31091 eV ==== 
     psi = 0.002*[#  24]+0.002*[#  28]
    |psi|^2 = 0.007
==== e(  35) =    27.30948 eV ==== 
     psi = 0.002*[#  22]+0.002*[#  26]
    |psi|^2 = 0.006
==== e(  36) =    27.30948 eV ==== 
     psi = 0.002*[#  22]+0.002*[#  26]
    |psi|^2 = 0.006
==== e(  37) =    29.54480 eV ==== 
     psi = 0.001*[#  24]+0.001*[#  28]
    |psi|^2 = 0.004
==== e(  38) =    29.54480 eV ==== 
     psi = 0.001*[#  24]+0.001*[#  28]
    |psi|^2 = 0.004
==== e(  39) =    29.54632 eV ==== 
     psi = 0.001*[#  23]+0.001*[#  27]
    |psi|^2 = 0.004
==== e(  40) =    29.54632 eV ==== 
     psi = 0.001*[#  23]+0.001*[#  27]
    |psi|^2 = 0.004
==== e(  41) =    33.73259 eV ==== 
 
    |psi|^2 = 0.004
==== e(  42) =    33.73259 eV ==== 
 
    |psi|^2 = 0.004
==== e(  43) =    34.29333 eV ==== 
 
    |psi|^2 = 0.001
==== e(  44) =    34.29333 eV ==== 
 
    |psi|^2 = 0.001
==== e(  45) =    34.29461 eV ==== 
 
    |psi|^2 = 0.001
==== e(  46) =    34.29461 eV ==== 
 
    |psi|^2 = 0.001
==== e(  47) =    37.70179 eV ==== 
 
    |psi|^2 = 0.002
==== e(  48) =    37.70179 eV ==== 
 
    |psi|^2 = 0.002
==== e(  49) =    41.17709 eV ==== 
     psi = 0.002*[#  24]+0.002*[#  28]
    |psi|^2 = 0.005
==== e(  50) =    41.17709 eV ==== 
     psi = 0.002*[#  24]+0.002*[#  28]
    |psi|^2 = 0.005
==== e(  51) =    41.17837 eV ==== 
     psi = 0.002*[#  23]+0.002*[#  27]
    |psi|^2 = 0.005
==== e(  52) =    41.17837 eV ==== 
     psi = 0.002*[#  23]+0.002*[#  27]
    |psi|^2 = 0.005

 k =   0.0500000000  0.0288675135  0.3121020699
==== e(   1) =  -116.00729 eV ==== 
     psi = 0.499*[#   1]+0.499*[#  11]
    |psi|^2 = 1.000
==== e(   2) =  -116.00729 eV ==== 
     psi = 0.499*[#   1]+0.499*[#  11]
    |psi|^2 = 1.000
==== e(   3) =   -69.68110 eV ==== 
     psi = 0.496*[#   2]+0.496*[#  12]+0.002*[#   4]+0.002*[#  14]+0.001*[#   3]
          +0.001*[#  13]
    |psi|^2 = 1.000
==== e(   4) =   -69.68110 eV ==== 
     psi = 0.496*[#   2]+0.496*[#  12]+0.002*[#   4]+0.002*[#  14]+0.001*[#   3]
          +0.001*[#  13]
    |psi|^2 = 1.000
==== e(   5) =   -69.61592 eV ==== 
     psi = 0.317*[#   3]+0.317*[#  13]+0.183*[#   4]+0.183*[#  14]
    |psi|^2 = 1.000
==== e(   6) =   -69.61592 eV ==== 
     psi = 0.317*[#   3]+0.317*[#  13]+0.183*[#   4]+0.183*[#  14]
    |psi|^2 = 1.000
==== e(   7) =   -69.61470 eV ==== 
     psi = 0.315*[#   4]+0.315*[#  14]+0.182*[#   3]+0.182*[#  13]+0.003*[#   2]
          +0.003*[#  12]
    |psi|^2 = 1.000
==== e(   8) =   -69.61470 eV ==== 
     psi = 0.315*[#   4]+0.315*[#  14]+0.182*[#   3]+0.182*[#  13]+0.003*[#   2]
          +0.003*[#  12]
    |psi|^2 = 1.000
==== e(   9) =    -7.96620 eV ==== 
     psi = 0.383*[#  21]+0.383*[#  25]+0.109*[#  10]+0.109*[#  20]+0.006*[#   5]
          +0.006*[#  15]
    |psi|^2 = 0.998
==== e(  10) =    -7.96620 eV ==== 
     psi = 0.383*[#  21]+0.383*[#  25]+0.109*[#  10]+0.109*[#  20]+0.006*[#   5]
          +0.006*[#  15]
    |psi|^2 = 0.998
==== e(  11) =     3.11181 eV ==== 
     psi = 0.290*[#   5]+0.290*[#  15]+0.132*[#  22]+0.132*[#  26]+0.037*[#  10]
          +0.037*[#  20]+0.011*[#   8]+0.011*[#  18]+0.007*[#   7]+0.007*[#  17]
          +0.006*[#   9]+0.006*[#  19]+0.005*[#  24]+0.005*[#  28]+0.004*[#   6]
          +0.004*[#  16]+0.003*[#  23]+0.003*[#  27]+0.003*[#  21]+0.003*[#  25]
          
    |psi|^2 = 0.997
==== e(  12) =     3.11181 eV ==== 
     psi = 0.290*[#   5]+0.290*[#  15]+0.132*[#  22]+0.132*[#  26]+0.037*[#  10]
          +0.037*[#  20]+0.011*[#   8]+0.011*[#  18]+0.007*[#   7]+0.007*[#  17]
          +0.006*[#   9]+0.006*[#  19]+0.005*[#  24]+0.005*[#  28]+0.004*[#   6]
          +0.004*[#  16]+0.003*[#  23]+0.003*[#  27]+0.003*[#  21]+0.003*[#  25]
          
    |psi|^2 = 0.997
==== e(  13) =     3.35207 eV ==== 
     psi = 0.230*[#   8]+0.230*[#  18]+0.078*[#   9]+0.078*[#  19]+0.072*[#  24]
          +0.072*[#  28]+0.050*[#   7]+0.050*[#  17]+0.024*[#  23]+0.024*[#  27]
          +0.021*[#   5]+0.021*[#  15]+0.017*[#   6]+0.017*[#  16]+0.006*[#  22]
          +0.006*[#  26]
    |psi|^2 = 0.999
==== e(  14) =     3.35207 eV ==== 
     psi = 0.230*[#   8]+0.230*[#  18]+0.078*[#   9]+0.078*[#  19]+0.072*[#  24]
          +0.072*[#  28]+0.050*[#   7]+0.050*[#  17]+0.024*[#  23]+0.024*[#  27]
          +0.021*[#   5]+0.021*[#  15]+0.017*[#   6]+0.017*[#  16]+0.006*[#  22]
          +0.006*[#  26]
    |psi|^2 = 0.999
==== e(  15) =     3.35269 eV ==== 
     psi = 0.237*[#   9]+0.237*[#  19]+0.080*[#   8]+0.080*[#  18]+0.074*[#  23]
          +0.074*[#  27]+0.054*[#   6]+0.054*[#  16]+0.025*[#  24]+0.025*[#  28]
          +0.019*[#   7]+0.019*[#  17]+0.007*[#   5]+0.007*[#  15]+0.002*[#  22]
          +0.002*[#  26]
    |psi|^2 = 0.999
==== e(  16) =     3.35269 eV ==== 
     psi = 0.237*[#   9]+0.237*[#  19]+0.080*[#   8]+0.080*[#  18]+0.074*[#  23]
          +0.074*[#  27]+0.054*[#   6]+0.054*[#  16]+0.025*[#  24]+0.025*[#  28]
          +0.019*[#   7]+0.019*[#  17]+0.007*[#   5]+0.007*[#  15]+0.002*[#  22]
          +0.002*[#  26]
    |psi|^2 = 0.999
==== e(  17) =     4.36346 eV ==== 
     psi = 0.253*[#   6]+0.253*[#  16]+0.151*[#   7]+0.151*[#  17]+0.060*[#   9]
          +0.060*[#  19]+0.036*[#   8]+0.036*[#  18]
    |psi|^2 = 1.000
==== e(  18) =     4.36346 eV ==== 
     psi = 0.253*[#   6]+0.253*[#  16]+0.151*[#   7]+0.151*[#  17]+0.060*[#   9]
          +0.060*[#  19]+0.036*[#   8]+0.036*[#  18]
    |psi|^2 = 1.000
==== e(  19) =     4.38056 eV ==== 
     psi = 0.252*[#   7]+0.252*[#  17]+0.151*[#   6]+0.151*[#  16]+0.059*[#   8]
          +0.059*[#  18]+0.035*[#   9]+0.035*[#  19]+0.002*[#   5]+0.002*[#  15]
          
    |psi|^2 = 0.999
==== e(  20) =     4.38056 eV ==== 
     psi = 0.252*[#   7]+0.252*[#  17]+0.151*[#   6]+0.151*[#  16]+0.059*[#   8]
          +0.059*[#  18]+0.035*[#   9]+0.035*[#  19]+0.002*[#   5]+0.002*[#  15]
          
    |psi|^2 = 0.999
==== e(  21) =     6.97387 eV ==== 
     psi = 0.214*[#  22]+0.214*[#  26]+0.169*[#   5]+0.169*[#  15]+0.061*[#  10]
          +0.061*[#  20]+0.040*[#  21]+0.040*[#  25]+0.002*[#   8]+0.002*[#  18]
          +0.001*[#   9]+0.001*[#  19]
    |psi|^2 = 0.981
==== e(  22) =     6.97387 eV ==== 
     psi = 0.214*[#  22]+0.214*[#  26]+0.169*[#   5]+0.169*[#  15]+0.061*[#  10]
          +0.061*[#  20]+0.040*[#  21]+0.040*[#  25]+0.002*[#   8]+0.002*[#  18]
          +0.001*[#   9]+0.001*[#  19]
    |psi|^2 = 0.981
==== e(  23) =     9.01758 eV ==== 
     psi = 0.238*[#  24]+0.238*[#  28]+0.142*[#  23]+0.142*[#  27]+0.051*[#   8]
          +0.051*[#  18]+0.030*[#   9]+0.030*[#  19]+0.012*[#   7]+0.012*[#  17]
          +0.007*[#   6]+0.007*[#  16]+0.007*[#  22]+0.007*[#  26]+0.001*[#   5]
          +0.001*[#  10]+0.001*[#  15]+0.001*[#  20]
    |psi|^2 = 0.981
==== e(  24) =     9.01758 eV ==== 
     psi = 0.238*[#  24]+0.238*[#  28]+0.142*[#  23]+0.142*[#  27]+0.051*[#   8]
          +0.051*[#  18]+0.030*[#   9]+0.030*[#  19]+0.012*[#   7]+0.012*[#  17]
          +0.007*[#   6]+0.007*[#  16]+0.007*[#  22]+0.007*[#  26]+0.001*[#   5]
          +0.001*[#  10]+0.001*[#  15]+0.001*[#  20]
    |psi|^2 = 0.981
==== e(  25) =     9.06988 eV ==== 
     psi = 0.245*[#  23]+0.245*[#  27]+0.145*[#  24]+0.145*[#  28]+0.051*[#   9]
          +0.051*[#  19]+0.030*[#   8]+0.030*[#  18]+0.013*[#   6]+0.013*[#  16]
          +0.008*[#   7]+0.008*[#  17]
    |psi|^2 = 0.983
==== e(  26) =     9.06988 eV ==== 
     psi = 0.245*[#  23]+0.245*[#  27]+0.145*[#  24]+0.145*[#  28]+0.051*[#   9]
          +0.051*[#  19]+0.030*[#   8]+0.030*[#  18]+0.013*[#   6]+0.013*[#  16]
          +0.008*[#   7]+0.008*[#  17]
    |psi|^2 = 0.983
==== e(  27) =    12.84188 eV ==== 
     psi = 0.283*[#  10]+0.283*[#  20]+0.117*[#  22]+0.117*[#  26]+0.070*[#  21]
          +0.070*[#  25]+0.004*[#  24]+0.004*[#  28]+0.003*[#  23]+0.003*[#  27]
          +0.002*[#   5]+0.002*[#  15]
    |psi|^2 = 0.959
==== e(  28) =    12.84188 eV ==== 
     psi = 0.283*[#  10]+0.283*[#  20]+0.117*[#  22]+0.117*[#  26]+0.070*[#  21]
          +0.070*[#  25]+0.004*[#  24]+0.004*[#  28]+0.003*[#  23]+0.003*[#  27]
          +0.002*[#   5]+0.002*[#  15]
    |psi|^2 = 0.959
==== e(  29) =    19.22081 eV ==== 
     psi = 0.016*[#  22]+0.016*[#  26]+0.005*[#  10]+0.005*[#  20]
    |psi|^2 = 0.045
==== e(  30) =    19.22081 eV ==== 
     psi = 0.016*[#  22]+0.016*[#  26]+0.005*[#  10]+0.005*[#  20]
    |psi|^2 = 0.045
==== e(  31) =    22.11795 eV ==== 
     psi = 0.002*[#  24]+0.002*[#  28]+0.001*[#  23]+0.001*[#  27]
    |psi|^2 = 0.011
==== e(  32) =    22.11795 eV ==== 
     psi = 0.002*[#  24]+0.002*[#  28]+0.001*[#  23]+0.001*[#  27]
    |psi|^2 = 0.011
==== e(  33) =    22.33254 eV ==== 
     psi = 0.002*[#  23]+0.002*[#  27]+0.001*[#  24]+0.001*[#  28]
    |psi|^2 = 0.008
==== e(  34) =    22.33254 eV ==== 
     psi = 0.002*[#  23]+0.002*[#  27]+0.001*[#  24]+0.001*[#  28]
    |psi|^2 = 0.008
==== e(  35) =    27.44381 eV ==== 
     psi = 0.001*[#  22]+0.001*[#  26]
    |psi|^2 = 0.005
==== e(  36) =    27.44381 eV ==== 
     psi = 0.001*[#  22]+0.001*[#  26]
    |psi|^2 = 0.005
==== e(  37) =    29.54142 eV ==== 
     psi = 0.001*[#  24]+0.001*[#  28]
    |psi|^2 = 0.004
==== e(  38) =    29.54142 eV ==== 
     psi = 0.001*[#  24]+0.001*[#  28]
    |psi|^2 = 0.004
==== e(  39) =    29.54429 eV ==== 
     psi = 0.001*[#  23]+0.001*[#  27]
    |psi|^2 = 0.004
==== e(  40) =    29.54429 eV ==== 
     psi = 0.001*[#  23]+0.001*[#  27]
    |psi|^2 = 0.004
==== e(  41) =    33.34055 eV ==== 
 
    |psi|^2 = 0.003
==== e(  42) =    33.34055 eV ==== 
 
    |psi|^2 = 0.003
==== e(  43) =    34.38086 eV ==== 
 
    |psi|^2 = 0.001
==== e(  44) =    34.38086 eV ==== 
 
    |psi|^2 = 0.001
==== e(  45) =    34.81317 eV ==== 
 
    |psi|^2 = 0.002
==== e(  46) =    34.81317 eV ==== 
 
    |psi|^2 = 0.002
==== e(  47) =    37.89495 eV ==== 
 
    |psi|^2 = 0.002
==== e(  48) =    37.89495 eV ==== 
 
    |psi|^2 = 0.002
==== e(  49) =    41.05504 eV ==== 
     psi = 0.001*[#  24]+0.001*[#  28]
    |psi|^2 = 0.004
==== e(  50) =    41.05504 eV ==== 
     psi = 0.001*[#  24]+0.001*[#  28]
    |psi|^2 = 0.004
==== e(  51) =    41.18415 eV ==== 
     psi = 0.001*[#  23]+0.001*[#  27]
    |psi|^2 = 0.004
==== e(  52) =    41.18415 eV ==== 
     psi = 0.001*[#  23]+0.001*[#  27]
    |psi|^2 = 0.004

 k =   0.1000000000  0.0577350269  0.3121020699
==== e(   1) =  -116.00726 eV ==== 
     psi = 0.499*[#   1]+0.499*[#  11]
    |psi|^2 = 1.000
==== e(   2) =  -116.00726 eV ==== 
     psi = 0.499*[#   1]+0.499*[#  11]
    |psi|^2 = 1.000
==== e(   3) =   -69.66949 eV ==== 
     psi = 0.499*[#   2]+0.499*[#  12]
    |psi|^2 = 1.000
==== e(   4) =   -69.66949 eV ==== 
     psi = 0.499*[#   2]+0.499*[#  12]
    |psi|^2 = 1.000
==== e(   5) =   -69.61216 eV ==== 
     psi = 0.321*[#   3]+0.321*[#  13]+0.179*[#   4]+0.179*[#  14]
    |psi|^2 = 1.000
==== e(   6) =   -69.61216 eV ==== 
     psi = 0.321*[#   3]+0.321*[#  13]+0.179*[#   4]+0.179*[#  14]
    |psi|^2 = 1.000
==== e(   7) =   -69.61136 eV ==== 
     psi = 0.321*[#   4]+0.321*[#  14]+0.179*[#   3]+0.179*[#  13]
    |psi|^2 = 1.000
==== e(   8) =   -69.61136 eV ==== 
     psi = 0.321*[#   4]+0.321*[#  14]+0.179*[#   3]+0.179*[#  13]
    |psi|^2 = 1.000
==== e(   9) =    -7.93291 eV ==== 
     psi = 0.387*[#  21]+0.387*[#  25]+0.104*[#  10]+0.104*[#  20]+0.006*[#   5]
          +0.006*[#  15]
    |psi|^2 = 0.998
==== e(  10) =    -7.93291 eV ==== 
     psi = 0.387*[#  21]+0.387*[#  25]+0.104*[#  10]+0.104*[#  20]+0.006*[#   5]
          +0.006*[#  15]
    |psi|^2 = 0.998
==== e(  11) =     3.09873 eV ==== 
     psi = 0.229*[#   5]+0.229*[#  15]+0.114*[#  22]+0.114*[#  26]+0.039*[#  10]
          +0.039*[#  20]+0.034*[#   8]+0.034*[#  18]+0.020*[#   7]+0.020*[#   9]
          +0.020*[#  17]+0.020*[#  19]+0.017*[#  24]+0.017*[#  28]+0.012*[#   6]
          +0.012*[#  16]+0.010*[#  23]+0.010*[#  27]+0.003*[#  21]+0.003*[#  25]
          
    |psi|^2 = 0.997
==== e(  12) =     3.09873 eV ==== 
     psi = 0.229*[#   5]+0.229*[#  15]+0.114*[#  22]+0.114*[#  26]+0.039*[#  10]
          +0.039*[#  20]+0.034*[#   8]+0.034*[#  18]+0.020*[#   7]+0.020*[#   9]
          +0.020*[#  17]+0.020*[#  19]+0.017*[#  24]+0.017*[#  28]+0.012*[#   6]
          +0.012*[#  16]+0.010*[#  23]+0.010*[#  27]+0.003*[#  21]+0.003*[#  25]
          
    |psi|^2 = 0.997
==== e(  13) =     3.37245 eV ==== 
     psi = 0.167*[#   8]+0.167*[#  18]+0.098*[#   9]+0.098*[#  19]+0.089*[#   5]
          +0.089*[#  15]+0.050*[#  24]+0.050*[#  28]+0.029*[#  23]+0.029*[#  27]
          +0.026*[#   7]+0.026*[#  17]+0.024*[#  22]+0.024*[#  26]+0.015*[#   6]
          +0.015*[#  16]
    |psi|^2 = 0.998
==== e(  14) =     3.37245 eV ==== 
     psi = 0.167*[#   8]+0.167*[#  18]+0.098*[#   9]+0.098*[#  19]+0.089*[#   5]
          +0.089*[#  15]+0.050*[#  24]+0.050*[#  28]+0.029*[#  23]+0.029*[#  27]
          +0.026*[#   7]+0.026*[#  17]+0.024*[#  22]+0.024*[#  26]+0.015*[#   6]
          +0.015*[#  16]
    |psi|^2 = 0.998
==== e(  15) =     3.38885 eV ==== 
     psi = 0.197*[#   9]+0.197*[#  19]+0.115*[#   8]+0.115*[#  18]+0.064*[#  23]
          +0.064*[#  27]+0.054*[#   6]+0.054*[#  16]+0.038*[#  24]+0.038*[#  28]
          +0.032*[#   7]+0.032*[#  17]
    |psi|^2 = 0.999
==== e(  16) =     3.38885 eV ==== 
     psi = 0.197*[#   9]+0.197*[#  19]+0.115*[#   8]+0.115*[#  18]+0.064*[#  23]
          +0.064*[#  27]+0.054*[#   6]+0.054*[#  16]+0.038*[#  24]+0.038*[#  28]
          +0.032*[#   7]+0.032*[#  17]
    |psi|^2 = 0.999
==== e(  17) =     4.37991 eV ==== 
     psi = 0.246*[#   6]+0.246*[#  16]+0.147*[#   7]+0.147*[#  17]+0.067*[#   9]
          +0.067*[#  19]+0.040*[#   8]+0.040*[#  18]
    |psi|^2 = 1.000
==== e(  18) =     4.37991 eV ==== 
     psi = 0.246*[#   6]+0.246*[#  16]+0.147*[#   7]+0.147*[#  17]+0.067*[#   9]
          +0.067*[#  19]+0.040*[#   8]+0.040*[#  18]
    |psi|^2 = 1.000
==== e(  19) =     4.40508 eV ==== 
     psi = 0.250*[#   7]+0.250*[#  17]+0.150*[#   6]+0.150*[#  16]+0.056*[#   8]
          +0.056*[#  18]+0.034*[#   9]+0.034*[#  19]+0.009*[#   5]+0.009*[#  15]
          
    |psi|^2 = 0.999
==== e(  20) =     4.40508 eV ==== 
     psi = 0.250*[#   7]+0.250*[#  17]+0.150*[#   6]+0.150*[#  16]+0.056*[#   8]
          +0.056*[#  18]+0.034*[#   9]+0.034*[#  19]+0.009*[#   5]+0.009*[#  15]
          
    |psi|^2 = 0.999
==== e(  21) =     6.97044 eV ==== 
     psi = 0.206*[#  22]+0.206*[#  26]+0.159*[#   5]+0.159*[#  15]+0.062*[#  10]
          +0.062*[#  20]+0.040*[#  21]+0.040*[#  25]+0.007*[#   8]+0.007*[#  18]
          +0.004*[#   9]+0.004*[#  19]+0.004*[#  24]+0.004*[#  28]+0.004*[#   7]
          +0.004*[#  17]+0.003*[#  23]+0.003*[#  27]+0.002*[#   6]+0.002*[#  16]
          
    |psi|^2 = 0.983
==== e(  22) =     6.97044 eV ==== 
     psi = 0.206*[#  22]+0.206*[#  26]+0.159*[#   5]+0.159*[#  15]+0.062*[#  10]
          +0.062*[#  20]+0.040*[#  21]+0.040*[#  25]+0.007*[#   8]+0.007*[#  18]
          +0.004*[#   9]+0.004*[#  19]+0.004*[#  24]+0.004*[#  28]+0.004*[#   7]
          +0.004*[#  17]+0.003*[#  23]+0.003*[#  27]+0.002*[#   6]+0.002*[#  16]
          
    |psi|^2 = 0.983
==== e(  23) =     8.80703 eV ==== 
     psi = 0.221*[#  24]+0.221*[#  28]+0.132*[#  23]+0.132*[#  27]+0.048*[#   8]
          +0.048*[#  18]+0.029*[#   9]+0.029*[#  19]+0.027*[#  22]+0.027*[#  26]
          +0.012*[#   7]+0.012*[#  17]+0.007*[#   6]+0.007*[#  16]+0.006*[#   5]
          +0.006*[#  15]+0.003*[#  10]+0.003*[#  20]+0.001*[#  21]+0.001*[#  25]
          
    |psi|^2 = 0.975
==== e(  24) =     8.80703 eV ==== 
     psi = 0.221*[#  24]+0.221*[#  28]+0.132*[#  23]+0.132*[#  27]+0.048*[#   8]
          +0.048*[#  18]+0.029*[#   9]+0.029*[#  19]+0.027*[#  22]+0.027*[#  26]
          +0.012*[#   7]+0.012*[#  17]+0.007*[#   6]+0.007*[#  16]+0.006*[#   5]
          +0.006*[#  15]+0.003*[#  10]+0.003*[#  20]+0.001*[#  21]+0.001*[#  25]
          
    |psi|^2 = 0.975
==== e(  25) =     8.99342 eV ==== 
     psi = 0.243*[#  23]+0.243*[#  27]+0.146*[#  24]+0.146*[#  28]+0.050*[#   9]
          +0.050*[#  19]+0.030*[#   8]+0.030*[#  18]+0.014*[#   6]+0.014*[#  16]
          +0.008*[#   7]+0.008*[#  17]
    |psi|^2 = 0.982
==== e(  26) =     8.99342 eV ==== 
     psi = 0.243*[#  23]+0.243*[#  27]+0.146*[#  24]+0.146*[#  28]+0.050*[#   9]
          +0.050*[#  19]+0.030*[#   8]+0.030*[#  18]+0.014*[#   6]+0.014*[#  16]
          +0.008*[#   7]+0.008*[#  17]
    |psi|^2 = 0.982
==== e(  27) =    13.07774 eV ==== 
     psi = 0.282*[#  10]+0.282*[#  20]+0.107*[#  22]+0.107*[#  26]+0.066*[#  21]
          +0.066*[#  25]+0.014*[#  24]+0.014*[#  28]+0.008*[#  23]+0.008*[#  27]
          +0.001*[#   5]+0.001*[#  15]
    |psi|^2 = 0.958
==== e(  28) =    13.07774 eV ==== 
     psi = 0.282*[#  10]+0.282*[#  20]+0.107*[#  22]+0.107*[#  26]+0.066*[#  21]
          +0.066*[#  25]+0.014*[#  24]+0.014*[#  28]+0.008*[#  23]+0.008*[#  27]
          +0.001*[#   5]+0.001*[#  15]
    |psi|^2 = 0.958
==== e(  29) =    19.19045 eV ==== 
     psi = 0.013*[#  22]+0.013*[#  26]+0.004*[#  10]+0.004*[#  20]+0.002*[#  24]
          +0.002*[#  28]+0.001*[#  23]+0.001*[#  27]
    |psi|^2 = 0.043
==== e(  30) =    19.19045 eV ==== 
     psi = 0.013*[#  22]+0.013*[#  26]+0.004*[#  10]+0.004*[#  20]+0.002*[#  24]
          +0.002*[#  28]+0.001*[#  23]+0.001*[#  27]
    |psi|^2 = 0.043
==== e(  31) =    21.68505 eV ==== 
     psi = 0.003*[#  22]+0.003*[#  26]+0.003*[#  24]+0.003*[#  28]+0.002*[#  10]
          +0.002*[#  20]+0.002*[#  23]+0.002*[#  27]
    |psi|^2 = 0.021
==== e(  32) =    21.68505 eV ==== 
     psi = 0.003*[#  22]+0.003*[#  26]+0.003*[#  24]+0.003*[#  28]+0.002*[#  10]
          +0.002*[#  20]+0.002*[#  23]+0.002*[#  27]
    |psi|^2 = 0.021
==== e(  33) =    22.40991 eV ==== 
     psi = 0.003*[#  23]+0.003*[#  27]+0.002*[#  24]+0.002*[#  28]
    |psi|^2 = 0.010
==== e(  34) =    22.40991 eV ==== 
     psi = 0.003*[#  23]+0.003*[#  27]+0.002*[#  24]+0.002*[#  28]
    |psi|^2 = 0.010
==== e(  35) =    27.51585 eV ==== 
 
    |psi|^2 = 0.004
==== e(  36) =    27.51585 eV ==== 
 
    |psi|^2 = 0.004
==== e(  37) =    29.56979 eV ==== 
 
    |psi|^2 = 0.003
==== e(  38) =    29.56979 eV ==== 
 
    |psi|^2 = 0.003
==== e(  39) =    29.82431 eV ==== 
 
    |psi|^2 = 0.003
==== e(  40) =    29.82431 eV ==== 
 
    |psi|^2 = 0.003
==== e(  41) =    32.90282 eV ==== 
 
    |psi|^2 = 0.003
==== e(  42) =    32.90282 eV ==== 
 
    |psi|^2 = 0.003
==== e(  43) =    34.64536 eV ==== 
 
    |psi|^2 = 0.001
==== e(  44) =    34.64536 eV ==== 
 
    |psi|^2 = 0.001
==== e(  45) =    35.59644 eV ==== 
 
    |psi|^2 = 0.003
==== e(  46) =    35.59644 eV ==== 
 
    |psi|^2 = 0.003
==== e(  47) =    38.39914 eV ==== 
 
    |psi|^2 = 0.002
==== e(  48) =    38.39914 eV ==== 
 
    |psi|^2 = 0.002
==== e(  49) =    40.79231 eV ==== 
 
    |psi|^2 = 0.004
==== e(  50) =    40.79231 eV ==== 
 
    |psi|^2 = 0.004
==== e(  51) =    41.22585 eV ==== 
     psi = 0.001*[#  23]+0.001*[#  27]
    |psi|^2 = 0.004
==== e(  52) =    41.22585 eV ==== 
     psi = 0.001*[#  23]+0.001*[#  27]
    |psi|^2 = 0.004

 k =   0.1500000000  0.0866025404  0.3121020699
==== e(   1) =  -116.00729 eV ==== 
     psi = 0.499*[#   1]+0.499*[#  11]
    |psi|^2 = 1.000
==== e(   2) =  -116.00729 eV ==== 
     psi = 0.499*[#   1]+0.499*[#  11]
    |psi|^2 = 1.000
==== e(   3) =   -69.67414 eV ==== 
     psi = 0.474*[#   2]+0.474*[#  12]+0.016*[#   4]+0.016*[#  14]+0.010*[#   3]
          +0.010*[#  13]
    |psi|^2 = 1.000
==== e(   4) =   -69.67414 eV ==== 
     psi = 0.474*[#   2]+0.474*[#  12]+0.016*[#   4]+0.016*[#  14]+0.010*[#   3]
          +0.010*[#  13]
    |psi|^2 = 1.000
==== e(   5) =   -69.64072 eV ==== 
     psi = 0.296*[#   4]+0.296*[#  14]+0.178*[#   3]+0.178*[#  13]+0.025*[#   2]
          +0.025*[#  12]
    |psi|^2 = 1.000
==== e(   6) =   -69.64072 eV ==== 
     psi = 0.296*[#   4]+0.296*[#  14]+0.178*[#   3]+0.178*[#  13]+0.025*[#   2]
          +0.025*[#  12]
    |psi|^2 = 1.000
==== e(   7) =   -69.62898 eV ==== 
     psi = 0.312*[#   3]+0.312*[#  13]+0.188*[#   4]+0.188*[#  14]
    |psi|^2 = 1.000
==== e(   8) =   -69.62898 eV ==== 
     psi = 0.312*[#   3]+0.312*[#  13]+0.188*[#   4]+0.188*[#  14]
    |psi|^2 = 1.000
==== e(   9) =    -7.88128 eV ==== 
     psi = 0.394*[#  21]+0.394*[#  25]+0.096*[#  10]+0.096*[#  20]+0.006*[#   5]
          +0.006*[#  15]
    |psi|^2 = 0.998
==== e(  10) =    -7.88128 eV ==== 
     psi = 0.394*[#  21]+0.394*[#  25]+0.096*[#  10]+0.096*[#  20]+0.006*[#   5]
          +0.006*[#  15]
    |psi|^2 = 0.998
==== e(  11) =     3.05456 eV ==== 
     psi = 0.154*[#   5]+0.154*[#  15]+0.090*[#  22]+0.090*[#  26]+0.063*[#   8]
          +0.063*[#  18]+0.042*[#  10]+0.042*[#  20]+0.037*[#   9]+0.037*[#  19]
          +0.037*[#   7]+0.037*[#  17]+0.032*[#  24]+0.032*[#  28]+0.022*[#   6]
          +0.022*[#  16]+0.019*[#  23]+0.019*[#  27]+0.002*[#  21]+0.002*[#  25]
          
    |psi|^2 = 0.998
==== e(  12) =     3.05456 eV ==== 
     psi = 0.154*[#   5]+0.154*[#  15]+0.090*[#  22]+0.090*[#  26]+0.063*[#   8]
          +0.063*[#  18]+0.042*[#  10]+0.042*[#  20]+0.037*[#   9]+0.037*[#  19]
          +0.037*[#   7]+0.037*[#  17]+0.032*[#  24]+0.032*[#  28]+0.022*[#   6]
          +0.022*[#  16]+0.019*[#  23]+0.019*[#  27]+0.002*[#  21]+0.002*[#  25]
          
    |psi|^2 = 0.998
==== e(  13) =     3.38133 eV ==== 
     psi = 0.167*[#   5]+0.167*[#  15]+0.131*[#   8]+0.131*[#  18]+0.074*[#   9]
          +0.074*[#  19]+0.043*[#  22]+0.043*[#  26]+0.038*[#  24]+0.038*[#  28]
          +0.021*[#  23]+0.021*[#  27]+0.015*[#   7]+0.015*[#  17]+0.008*[#   6]
          +0.008*[#  16]+0.002*[#  10]+0.002*[#  20]
    |psi|^2 = 0.998
==== e(  14) =     3.38133 eV ==== 
     psi = 0.167*[#   5]+0.167*[#  15]+0.131*[#   8]+0.131*[#  18]+0.074*[#   9]
          +0.074*[#  19]+0.043*[#  22]+0.043*[#  26]+0.038*[#  24]+0.038*[#  28]
          +0.021*[#  23]+0.021*[#  27]+0.015*[#   7]+0.015*[#  17]+0.008*[#   6]
          +0.008*[#  16]+0.002*[#  10]+0.002*[#  20]
    |psi|^2 = 0.998
==== e(  15) =     3.38722 eV ==== 
     psi = 0.197*[#   9]+0.197*[#  19]+0.113*[#   8]+0.113*[#  18]+0.063*[#  23]
          +0.063*[#  27]+0.056*[#   6]+0.056*[#  16]+0.036*[#  24]+0.036*[#  28]
          +0.033*[#   7]+0.033*[#  17]
    |psi|^2 = 0.999
==== e(  16) =     3.38722 eV ==== 
     psi = 0.197*[#   9]+0.197*[#  19]+0.113*[#   8]+0.113*[#  18]+0.063*[#  23]
          +0.063*[#  27]+0.056*[#   6]+0.056*[#  16]+0.036*[#  24]+0.036*[#  28]
          +0.033*[#   7]+0.033*[#  17]
    |psi|^2 = 0.999
==== e(  17) =     4.36976 eV ==== 
     psi = 0.241*[#   6]+0.241*[#  16]+0.144*[#   7]+0.144*[#  17]+0.071*[#   9]
          +0.071*[#  19]+0.043*[#   8]+0.043*[#  18]
    |psi|^2 = 1.000
==== e(  18) =     4.36976 eV ==== 
     psi = 0.241*[#   6]+0.241*[#  16]+0.144*[#   7]+0.144*[#  17]+0.071*[#   9]
          +0.071*[#  19]+0.043*[#   8]+0.043*[#  18]
    |psi|^2 = 1.000
==== e(  19) =     4.39410 eV ==== 
     psi = 0.242*[#   7]+0.242*[#  17]+0.145*[#   6]+0.145*[#  16]+0.059*[#   8]
          +0.059*[#  18]+0.035*[#   9]+0.035*[#  19]+0.017*[#   5]+0.017*[#  15]
          
    |psi|^2 = 0.999
==== e(  20) =     4.39410 eV ==== 
     psi = 0.242*[#   7]+0.242*[#  17]+0.145*[#   6]+0.145*[#  16]+0.059*[#   8]
          +0.059*[#  18]+0.035*[#   9]+0.035*[#  19]+0.017*[#   5]+0.017*[#  15]
          
    |psi|^2 = 0.999
==== e(  21) =     6.90984 eV ==== 
     psi = 0.187*[#  22]+0.187*[#  26]+0.140*[#   5]+0.140*[#  15]+0.062*[#  10]
          +0.062*[#  20]+0.039*[#  21]+0.039*[#  25]+0.017*[#   8]+0.017*[#  18]
          +0.014*[#  24]+0.014*[#  28]+0.010*[#   9]+0.010*[#  19]+0.008*[#   7]
          +0.008*[#  17]+0.008*[#  23]+0.008*[#  27]+0.005*[#   6]+0.005*[#  16]
          
    |psi|^2 = 0.985
==== e(  22) =     6.90984 eV ==== 
     psi = 0.187*[#  22]+0.187*[#  26]+0.140*[#   5]+0.140*[#  15]+0.062*[#  10]
          +0.062*[#  20]+0.039*[#  21]+0.039*[#  25]+0.017*[#   8]+0.017*[#  18]
          +0.014*[#  24]+0.014*[#  28]+0.010*[#   9]+0.010*[#  19]+0.008*[#   7]
          +0.008*[#  17]+0.008*[#  23]+0.008*[#  27]+0.005*[#   6]+0.005*[#  16]
          
    |psi|^2 = 0.985
==== e(  23) =     8.50711 eV ==== 
     psi = 0.197*[#  24]+0.197*[#  28]+0.118*[#  23]+0.118*[#  27]+0.063*[#  22]
          +0.063*[#  26]+0.044*[#   8]+0.044*[#  18]+0.026*[#   9]+0.026*[#  19]
          +0.015*[#   5]+0.015*[#  15]+0.011*[#   7]+0.011*[#  17]+0.006*[#   6]
          +0.006*[#  16]+0.003*[#  10]+0.003*[#  20]+0.001*[#  21]+0.001*[#  25]
          
    |psi|^2 = 0.967
==== e(  24) =     8.50711 eV ==== 
     psi = 0.197*[#  24]+0.197*[#  28]+0.118*[#  23]+0.118*[#  27]+0.063*[#  22]
          +0.063*[#  26]+0.044*[#   8]+0.044*[#  18]+0.026*[#   9]+0.026*[#  19]
          +0.015*[#   5]+0.015*[#  15]+0.011*[#   7]+0.011*[#  17]+0.006*[#   6]
          +0.006*[#  16]+0.003*[#  10]+0.003*[#  20]+0.001*[#  21]+0.001*[#  25]
          
    |psi|^2 = 0.967
==== e(  25) =     8.84414 eV ==== 
     psi = 0.244*[#  23]+0.244*[#  27]+0.146*[#  24]+0.146*[#  28]+0.047*[#   9]
          +0.047*[#  19]+0.028*[#   8]+0.028*[#  18]+0.016*[#   6]+0.016*[#  16]
          +0.009*[#   7]+0.009*[#  17]
    |psi|^2 = 0.980
==== e(  26) =     8.84414 eV ==== 
     psi = 0.244*[#  23]+0.244*[#  27]+0.146*[#  24]+0.146*[#  28]+0.047*[#   9]
          +0.047*[#  19]+0.028*[#   8]+0.028*[#  18]+0.016*[#   6]+0.016*[#  16]
          +0.009*[#   7]+0.009*[#  17]
    |psi|^2 = 0.980
==== e(  27) =    13.39438 eV ==== 
     psi = 0.282*[#  10]+0.282*[#  20]+0.095*[#  22]+0.095*[#  26]+0.059*[#  21]
          +0.059*[#  25]+0.023*[#  24]+0.023*[#  28]+0.014*[#  23]+0.014*[#  27]
          
    |psi|^2 = 0.948
==== e(  28) =    13.39438 eV ==== 
     psi = 0.282*[#  10]+0.282*[#  20]+0.095*[#  22]+0.095*[#  26]+0.059*[#  21]
          +0.059*[#  25]+0.023*[#  24]+0.023*[#  28]+0.014*[#  23]+0.014*[#  27]
          
    |psi|^2 = 0.948
==== e(  29) =    19.09468 eV ==== 
     psi = 0.008*[#  22]+0.008*[#  26]+0.006*[#  10]+0.006*[#  20]+0.005*[#  24]
          +0.005*[#  28]+0.003*[#  23]+0.003*[#  27]+0.001*[#  21]+0.001*[#  25]
          
    |psi|^2 = 0.047
==== e(  30) =    19.09468 eV ==== 
     psi = 0.008*[#  22]+0.008*[#  26]+0.006*[#  10]+0.006*[#  20]+0.005*[#  24]
          +0.005*[#  28]+0.003*[#  23]+0.003*[#  27]+0.001*[#  21]+0.001*[#  25]
          
    |psi|^2 = 0.047
==== e(  31) =    21.22062 eV ==== 
     psi = 0.007*[#  22]+0.007*[#  26]+0.004*[#  10]+0.004*[#  20]+0.003*[#  24]
          +0.003*[#  28]+0.002*[#  23]+0.002*[#  27]
    |psi|^2 = 0.033
==== e(  32) =    21.22062 eV ==== 
     psi = 0.007*[#  22]+0.007*[#  26]+0.004*[#  10]+0.004*[#  20]+0.003*[#  24]
          +0.003*[#  28]+0.002*[#  23]+0.002*[#  27]
    |psi|^2 = 0.033
==== e(  33) =    22.50918 eV ==== 
     psi = 0.004*[#  23]+0.004*[#  27]+0.002*[#  24]+0.002*[#  28]
    |psi|^2 = 0.013
==== e(  34) =    22.50918 eV ==== 
     psi = 0.004*[#  23]+0.004*[#  27]+0.002*[#  24]+0.002*[#  28]
    |psi|^2 = 0.013
==== e(  35) =    27.17223 eV ==== 
 
    |psi|^2 = 0.004
==== e(  36) =    27.17223 eV ==== 
 
    |psi|^2 = 0.004
==== e(  37) =    29.63766 eV ==== 
 
    |psi|^2 = 0.002
==== e(  38) =    29.63766 eV ==== 
 
    |psi|^2 = 0.002
==== e(  39) =    30.60252 eV ==== 
 
    |psi|^2 = 0.003
==== e(  40) =    30.60252 eV ==== 
 
    |psi|^2 = 0.003
==== e(  41) =    32.61256 eV ==== 
 
    |psi|^2 = 0.004
==== e(  42) =    32.61256 eV ==== 
 
    |psi|^2 = 0.004
==== e(  43) =    35.01069 eV ==== 
 
    |psi|^2 = 0.002
==== e(  44) =    35.01069 eV ==== 
 
    |psi|^2 = 0.002
==== e(  45) =    36.38463 eV ==== 
 
    |psi|^2 = 0.004
==== e(  46) =    36.38463 eV ==== 
 
    |psi|^2 = 0.004
==== e(  47) =    38.92104 eV ==== 
 
    |psi|^2 = 0.002
==== e(  48) =    38.92104 eV ==== 
 
    |psi|^2 = 0.002
==== e(  49) =    40.66445 eV ==== 
 
    |psi|^2 = 0.003
==== e(  50) =    40.66445 eV ==== 
 
    |psi|^2 = 0.003
==== e(  51) =    41.27791 eV ==== 
     psi = 0.001*[#  23]+0.001*[#  27]
    |psi|^2 = 0.003
==== e(  52) =    41.27791 eV ==== 
     psi = 0.001*[#  23]+0.001*[#  27]
    |psi|^2 = 0.003

 k =   0.2000000000  0.1154700538  0.3121020699
==== e(   1) =  -116.00729 eV ==== 
     psi = 0.499*[#   1]+0.499*[#  11]
    |psi|^2 = 1.000
==== e(   2) =  -116.00729 eV ==== 
     psi = 0.499*[#   1]+0.499*[#  11]
    |psi|^2 = 1.000
==== e(   3) =   -69.67144 eV ==== 
     psi = 0.427*[#   2]+0.427*[#  12]+0.045*[#   4]+0.045*[#  14]+0.027*[#   3]
          +0.027*[#  13]
    |psi|^2 = 1.000
==== e(   4) =   -69.67144 eV ==== 
     psi = 0.427*[#   2]+0.427*[#  12]+0.045*[#   4]+0.045*[#  14]+0.027*[#   3]
          +0.027*[#  13]
    |psi|^2 = 1.000
==== e(   5) =   -69.66015 eV ==== 
     psi = 0.267*[#   4]+0.267*[#  14]+0.160*[#   3]+0.160*[#  13]+0.073*[#   2]
          +0.073*[#  12]
    |psi|^2 = 1.000
==== e(   6) =   -69.66015 eV ==== 
     psi = 0.267*[#   4]+0.267*[#  14]+0.160*[#   3]+0.160*[#  13]+0.073*[#   2]
          +0.073*[#  12]
    |psi|^2 = 1.000
==== e(   7) =   -69.63313 eV ==== 
     psi = 0.312*[#   3]+0.312*[#  13]+0.188*[#   4]+0.188*[#  14]
    |psi|^2 = 1.000
==== e(   8) =   -69.63313 eV ==== 
     psi = 0.312*[#   3]+0.312*[#  13]+0.188*[#   4]+0.188*[#  14]
    |psi|^2 = 1.000
==== e(   9) =    -7.81477 eV ==== 
     psi = 0.404*[#  21]+0.404*[#  25]+0.085*[#  10]+0.085*[#  20]+0.005*[#   5]
          +0.005*[#  15]+0.002*[#   8]+0.002*[#  18]+0.001*[#   9]+0.001*[#  19]
          
    |psi|^2 = 0.998
==== e(  10) =    -7.81477 eV ==== 
     psi = 0.404*[#  21]+0.404*[#  25]+0.085*[#  10]+0.085*[#  20]+0.005*[#   5]
          +0.005*[#  15]+0.002*[#   8]+0.002*[#  18]+0.001*[#   9]+0.001*[#  19]
          
    |psi|^2 = 0.998
==== e(  11) =     3.02310 eV ==== 
     psi = 0.099*[#   5]+0.099*[#  15]+0.080*[#   8]+0.080*[#  18]+0.074*[#  22]
          +0.074*[#  26]+0.050*[#   7]+0.050*[#  17]+0.048*[#   9]+0.048*[#  19]
          +0.045*[#  10]+0.045*[#  20]+0.044*[#  24]+0.044*[#  28]+0.030*[#   6]
          +0.030*[#  16]+0.027*[#  23]+0.027*[#  27]+0.002*[#  21]+0.002*[#  25]
          
    |psi|^2 = 0.998
==== e(  12) =     3.02310 eV ==== 
     psi = 0.099*[#   5]+0.099*[#  15]+0.080*[#   8]+0.080*[#  18]+0.074*[#  22]
          +0.074*[#  26]+0.050*[#   7]+0.050*[#  17]+0.048*[#   9]+0.048*[#  19]
          +0.045*[#  10]+0.045*[#  20]+0.044*[#  24]+0.044*[#  28]+0.030*[#   6]
          +0.030*[#  16]+0.027*[#  23]+0.027*[#  27]+0.002*[#  21]+0.002*[#  25]
          
    |psi|^2 = 0.998
==== e(  13) =     3.42557 eV ==== 
     psi = 0.184*[#   9]+0.184*[#  19]+0.112*[#   8]+0.112*[#  18]+0.066*[#   6]
          +0.066*[#  16]+0.061*[#  23]+0.061*[#  27]+0.040*[#   7]+0.040*[#  17]
          +0.037*[#  24]+0.037*[#  28]
    |psi|^2 = 0.998
==== e(  14) =     3.42557 eV ==== 
     psi = 0.184*[#   9]+0.184*[#  19]+0.112*[#   8]+0.112*[#  18]+0.066*[#   6]
          +0.066*[#  16]+0.061*[#  23]+0.061*[#  27]+0.040*[#   7]+0.040*[#  17]
          +0.037*[#  24]+0.037*[#  28]
    |psi|^2 = 0.998
==== e(  15) =     3.43272 eV ==== 
     psi = 0.220*[#   5]+0.220*[#  15]+0.100*[#   8]+0.100*[#  18]+0.062*[#   9]
          +0.062*[#  19]+0.055*[#  22]+0.055*[#  26]+0.028*[#  24]+0.028*[#  28]
          +0.018*[#  23]+0.018*[#  27]+0.008*[#   7]+0.008*[#  17]+0.005*[#   6]
          +0.005*[#  16]+0.003*[#  10]+0.003*[#  20]
    |psi|^2 = 0.998
==== e(  16) =     3.43272 eV ==== 
     psi = 0.220*[#   5]+0.220*[#  15]+0.100*[#   8]+0.100*[#  18]+0.062*[#   9]
          +0.062*[#  19]+0.055*[#  22]+0.055*[#  26]+0.028*[#  24]+0.028*[#  28]
          +0.018*[#  23]+0.018*[#  27]+0.008*[#   7]+0.008*[#  17]+0.005*[#   6]
          +0.005*[#  16]+0.003*[#  10]+0.003*[#  20]
    |psi|^2 = 0.998
==== e(  17) =     4.37239 eV ==== 
     psi = 0.230*[#   6]+0.230*[#  16]+0.136*[#   7]+0.136*[#  17]+0.084*[#   9]
          +0.084*[#  19]+0.050*[#   8]+0.050*[#  18]
    |psi|^2 = 1.000
==== e(  18) =     4.37239 eV ==== 
     psi = 0.230*[#   6]+0.230*[#  16]+0.136*[#   7]+0.136*[#  17]+0.084*[#   9]
          +0.084*[#  19]+0.050*[#   8]+0.050*[#  18]
    |psi|^2 = 1.000
==== e(  19) =     4.37801 eV ==== 
     psi = 0.231*[#   7]+0.231*[#  17]+0.136*[#   6]+0.136*[#  16]+0.062*[#   8]
          +0.062*[#  18]+0.037*[#   9]+0.037*[#  19]+0.029*[#   5]+0.029*[#  15]
          +0.002*[#  22]+0.002*[#  26]+0.002*[#  10]+0.002*[#  20]
    |psi|^2 = 0.999
==== e(  20) =     4.37801 eV ==== 
     psi = 0.231*[#   7]+0.231*[#  17]+0.136*[#   6]+0.136*[#  16]+0.062*[#   8]
          +0.062*[#  18]+0.037*[#   9]+0.037*[#  19]+0.029*[#   5]+0.029*[#  15]
          +0.002*[#  22]+0.002*[#  26]+0.002*[#  10]+0.002*[#  20]
    |psi|^2 = 0.999
==== e(  21) =     6.78770 eV ==== 
     psi = 0.148*[#  22]+0.148*[#  26]+0.112*[#   5]+0.112*[#  15]+0.062*[#  10]
          +0.062*[#  20]+0.037*[#  21]+0.037*[#  25]+0.035*[#  24]+0.035*[#  28]
          +0.033*[#   8]+0.033*[#  18]+0.021*[#  23]+0.021*[#  27]+0.020*[#   9]
          +0.020*[#  19]+0.016*[#   7]+0.016*[#  17]+0.010*[#   6]+0.010*[#  16]
          
    |psi|^2 = 0.987
==== e(  22) =     6.78770 eV ==== 
     psi = 0.148*[#  22]+0.148*[#  26]+0.112*[#   5]+0.112*[#  15]+0.062*[#  10]
          +0.062*[#  20]+0.037*[#  21]+0.037*[#  25]+0.035*[#  24]+0.035*[#  28]
          +0.033*[#   8]+0.033*[#  18]+0.021*[#  23]+0.021*[#  27]+0.020*[#   9]
          +0.020*[#  19]+0.016*[#   7]+0.016*[#  17]+0.010*[#   6]+0.010*[#  16]
          
    |psi|^2 = 0.987
==== e(  23) =     8.24544 eV ==== 
     psi = 0.162*[#  24]+0.162*[#  28]+0.119*[#  22]+0.119*[#  26]+0.097*[#  23]
          +0.097*[#  27]+0.035*[#   8]+0.035*[#  18]+0.033*[#   5]+0.033*[#  15]
          +0.021*[#   9]+0.021*[#  19]+0.008*[#   7]+0.008*[#  17]+0.005*[#   6]
          +0.005*[#  16]
    |psi|^2 = 0.961
==== e(  24) =     8.24544 eV ==== 
     psi = 0.162*[#  24]+0.162*[#  28]+0.119*[#  22]+0.119*[#  26]+0.097*[#  23]
          +0.097*[#  27]+0.035*[#   8]+0.035*[#  18]+0.033*[#   5]+0.033*[#  15]
          +0.021*[#   9]+0.021*[#  19]+0.008*[#   7]+0.008*[#  17]+0.005*[#   6]
          +0.005*[#  16]
    |psi|^2 = 0.961
==== e(  25) =     8.66959 eV ==== 
     psi = 0.244*[#  23]+0.244*[#  27]+0.146*[#  24]+0.146*[#  28]+0.044*[#   9]
          +0.044*[#  19]+0.026*[#   8]+0.026*[#  18]+0.018*[#   6]+0.018*[#  16]
          +0.011*[#   7]+0.011*[#  17]
    |psi|^2 = 0.977
==== e(  26) =     8.66959 eV ==== 
     psi = 0.244*[#  23]+0.244*[#  27]+0.146*[#  24]+0.146*[#  28]+0.044*[#   9]
          +0.044*[#  19]+0.026*[#   8]+0.026*[#  18]+0.018*[#   6]+0.018*[#  16]
          +0.011*[#   7]+0.011*[#  17]
    |psi|^2 = 0.977
==== e(  27) =    13.74361 eV ==== 
     psi = 0.281*[#  10]+0.281*[#  20]+0.082*[#  22]+0.082*[#  26]+0.052*[#  21]
          +0.052*[#  25]+0.027*[#  24]+0.027*[#  28]+0.016*[#  23]+0.016*[#  27]
          
    |psi|^2 = 0.921
==== e(  28) =    13.74361 eV ==== 
     psi = 0.281*[#  10]+0.281*[#  20]+0.082*[#  22]+0.082*[#  26]+0.052*[#  21]
          +0.052*[#  25]+0.027*[#  24]+0.027*[#  28]+0.016*[#  23]+0.016*[#  27]
          
    |psi|^2 = 0.921
==== e(  29) =    18.89189 eV ==== 
     psi = 0.013*[#  10]+0.013*[#  20]+0.010*[#  24]+0.010*[#  28]+0.006*[#  23]
          +0.006*[#  27]+0.004*[#  22]+0.004*[#  26]+0.002*[#  21]+0.002*[#  25]
          
    |psi|^2 = 0.070
==== e(  30) =    18.89189 eV ==== 
     psi = 0.013*[#  10]+0.013*[#  20]+0.010*[#  24]+0.010*[#  28]+0.006*[#  23]
          +0.006*[#  27]+0.004*[#  22]+0.004*[#  26]+0.002*[#  21]+0.002*[#  25]
          
    |psi|^2 = 0.070
==== e(  31) =    20.89056 eV ==== 
     psi = 0.010*[#  22]+0.010*[#  26]+0.005*[#  10]+0.005*[#  20]+0.002*[#  24]
          +0.002*[#  28]+0.001*[#  23]+0.001*[#  27]
    |psi|^2 = 0.042
==== e(  32) =    20.89056 eV ==== 
     psi = 0.010*[#  22]+0.010*[#  26]+0.005*[#  10]+0.005*[#  20]+0.002*[#  24]
          +0.002*[#  28]+0.001*[#  23]+0.001*[#  27]
    |psi|^2 = 0.042
==== e(  33) =    22.63222 eV ==== 
     psi = 0.005*[#  23]+0.005*[#  27]+0.003*[#  24]+0.003*[#  28]
    |psi|^2 = 0.017
==== e(  34) =    22.63222 eV ==== 
     psi = 0.005*[#  23]+0.005*[#  27]+0.003*[#  24]+0.003*[#  28]
    |psi|^2 = 0.017
==== e(  35) =    26.64133 eV ==== 
 
    |psi|^2 = 0.004
==== e(  36) =    26.64133 eV ==== 
 
    |psi|^2 = 0.004
==== e(  37) =    29.80817 eV ==== 
 
    |psi|^2 = 0.001
==== e(  38) =    29.80817 eV ==== 
 
    |psi|^2 = 0.001
==== e(  39) =    31.37945 eV ==== 
 
    |psi|^2 = 0.004
==== e(  40) =    31.37945 eV ==== 
 
    |psi|^2 = 0.004
==== e(  41) =    32.73147 eV ==== 
     psi = 0.001*[#  22]+0.001*[#  26]
    |psi|^2 = 0.003
==== e(  42) =    32.73147 eV ==== 
     psi = 0.001*[#  22]+0.001*[#  26]
    |psi|^2 = 0.003
==== e(  43) =    35.42735 eV ==== 
 
    |psi|^2 = 0.003
==== e(  44) =    35.42735 eV ==== 
 
    |psi|^2 = 0.003
==== e(  45) =    37.06258 eV ==== 
 
    |psi|^2 = 0.004
==== e(  46) =    37.06258 eV ==== 
 
    |psi|^2 = 0.004
==== e(  47) =    39.12910 eV ==== 
 
    |psi|^2 = 0.002
==== e(  48) =    39.12910 eV ==== 
 
    |psi|^2 = 0.002
==== e(  49) =    41.02679 eV ==== 
 
    |psi|^2 = 0.002
==== e(  50) =    41.02679 eV ==== 
 
    |psi|^2 = 0.002
==== e(  51) =    41.38575 eV ==== 
 
    |psi|^2 = 0.003
==== e(  52) =    41.38575 eV ==== 
 
    |psi|^2 = 0.003

 k =   0.2500000000  0.1443375673  0.3121020699
==== e(   1) =  -116.00726 eV ==== 
     psi = 0.498*[#   1]+0.498*[#  11]
    |psi|^2 = 1.000
==== e(   2) =  -116.00726 eV ==== 
     psi = 0.498*[#   1]+0.498*[#  11]
    |psi|^2 = 1.000
==== e(   3) =   -69.67504 eV ==== 
     psi = 0.442*[#   2]+0.442*[#  12]+0.036*[#   4]+0.036*[#  14]+0.022*[#   3]
          +0.022*[#  13]
    |psi|^2 = 1.000
==== e(   4) =   -69.67504 eV ==== 
     psi = 0.442*[#   2]+0.442*[#  12]+0.036*[#   4]+0.036*[#  14]+0.022*[#   3]
          +0.022*[#  13]
    |psi|^2 = 1.000
==== e(   5) =   -69.64499 eV ==== 
     psi = 0.276*[#   4]+0.276*[#  14]+0.166*[#   3]+0.166*[#  13]+0.058*[#   2]
          +0.058*[#  12]
    |psi|^2 = 1.000
==== e(   6) =   -69.64499 eV ==== 
     psi = 0.276*[#   4]+0.276*[#  14]+0.166*[#   3]+0.166*[#  13]+0.058*[#   2]
          +0.058*[#  12]
    |psi|^2 = 1.000
==== e(   7) =   -69.62824 eV ==== 
     psi = 0.312*[#   3]+0.312*[#  13]+0.188*[#   4]+0.188*[#  14]
    |psi|^2 = 1.000
==== e(   8) =   -69.62824 eV ==== 
     psi = 0.312*[#   3]+0.312*[#  13]+0.188*[#   4]+0.188*[#  14]
    |psi|^2 = 1.000
==== e(   9) =    -7.73987 eV ==== 
     psi = 0.415*[#  21]+0.415*[#  25]+0.072*[#  10]+0.072*[#  20]+0.005*[#   5]
          +0.005*[#  15]+0.003*[#   8]+0.003*[#  18]+0.002*[#   9]+0.002*[#  19]
          +0.001*[#   7]+0.001*[#  17]
    |psi|^2 = 0.998
==== e(  10) =    -7.73987 eV ==== 
     psi = 0.415*[#  21]+0.415*[#  25]+0.072*[#  10]+0.072*[#  20]+0.005*[#   5]
          +0.005*[#  15]+0.003*[#   8]+0.003*[#  18]+0.002*[#   9]+0.002*[#  19]
          +0.001*[#   7]+0.001*[#  17]
    |psi|^2 = 0.998
==== e(  11) =     2.99809 eV ==== 
     psi = 0.081*[#   8]+0.081*[#  18]+0.075*[#   5]+0.075*[#  15]+0.068*[#  22]
          +0.068*[#  26]+0.056*[#   7]+0.056*[#  17]+0.052*[#  24]+0.052*[#  28]
          +0.049*[#  10]+0.049*[#  20]+0.049*[#   9]+0.049*[#  19]+0.034*[#   6]
          +0.034*[#  16]+0.031*[#  23]+0.031*[#  27]+0.002*[#  21]+0.002*[#  25]
          
    |psi|^2 = 0.998
==== e(  12) =     2.99809 eV ==== 
     psi = 0.081*[#   8]+0.081*[#  18]+0.075*[#   5]+0.075*[#  15]+0.068*[#  22]
          +0.068*[#  26]+0.056*[#   7]+0.056*[#  17]+0.052*[#  24]+0.052*[#  28]
          +0.049*[#  10]+0.049*[#  20]+0.049*[#   9]+0.049*[#  19]+0.034*[#   6]
          +0.034*[#  16]+0.031*[#  23]+0.031*[#  27]+0.002*[#  21]+0.002*[#  25]
          
    |psi|^2 = 0.998
==== e(  13) =     3.48865 eV ==== 
     psi = 0.247*[#   5]+0.247*[#  15]+0.086*[#   8]+0.086*[#  18]+0.056*[#  22]
          +0.056*[#  26]+0.051*[#   9]+0.051*[#  19]+0.027*[#  24]+0.027*[#  28]
          +0.016*[#  23]+0.016*[#  27]+0.007*[#   7]+0.007*[#  17]+0.005*[#  10]
          +0.005*[#  20]+0.004*[#   6]+0.004*[#  16]
    |psi|^2 = 0.997
==== e(  14) =     3.48865 eV ==== 
     psi = 0.247*[#   5]+0.247*[#  15]+0.086*[#   8]+0.086*[#  18]+0.056*[#  22]
          +0.056*[#  26]+0.051*[#   9]+0.051*[#  19]+0.027*[#  24]+0.027*[#  28]
          +0.016*[#  23]+0.016*[#  27]+0.007*[#   7]+0.007*[#  17]+0.005*[#  10]
          +0.005*[#  20]+0.004*[#   6]+0.004*[#  16]
    |psi|^2 = 0.997
==== e(  15) =     3.50486 eV ==== 
     psi = 0.166*[#   9]+0.166*[#  19]+0.099*[#   8]+0.099*[#  18]+0.085*[#   6]
          +0.085*[#  16]+0.061*[#  23]+0.061*[#  27]+0.051*[#   7]+0.051*[#  17]
          +0.036*[#  24]+0.036*[#  28]
    |psi|^2 = 0.998
==== e(  16) =     3.50486 eV ==== 
     psi = 0.166*[#   9]+0.166*[#  19]+0.099*[#   8]+0.099*[#  18]+0.085*[#   6]
          +0.085*[#  16]+0.061*[#  23]+0.061*[#  27]+0.051*[#   7]+0.051*[#  17]
          +0.036*[#  24]+0.036*[#  28]
    |psi|^2 = 0.998
==== e(  17) =     4.39000 eV ==== 
     psi = 0.207*[#   6]+0.207*[#  16]+0.123*[#   7]+0.123*[#  17]+0.106*[#   9]
          +0.106*[#  19]+0.063*[#   8]+0.063*[#  18]
    |psi|^2 = 1.000
==== e(  18) =     4.39000 eV ==== 
     psi = 0.207*[#   6]+0.207*[#  16]+0.123*[#   7]+0.123*[#  17]+0.106*[#   9]
          +0.106*[#  19]+0.063*[#   8]+0.063*[#  18]
    |psi|^2 = 1.000
==== e(  19) =     4.41423 eV ==== 
     psi = 0.216*[#   7]+0.216*[#  17]+0.129*[#   6]+0.129*[#  16]+0.067*[#   8]
          +0.067*[#  18]+0.040*[#   9]+0.040*[#  19]+0.040*[#   5]+0.040*[#  15]
          +0.002*[#  10]+0.002*[#  20]+0.002*[#  22]+0.002*[#  26]+0.001*[#  21]
          +0.001*[#  25]
    |psi|^2 = 0.999
==== e(  20) =     4.41423 eV ==== 
     psi = 0.216*[#   7]+0.216*[#  17]+0.129*[#   6]+0.129*[#  16]+0.067*[#   8]
          +0.067*[#  18]+0.040*[#   9]+0.040*[#  19]+0.040*[#   5]+0.040*[#  15]
          +0.002*[#  10]+0.002*[#  20]+0.002*[#  22]+0.002*[#  26]+0.001*[#  21]
          +0.001*[#  25]
    |psi|^2 = 0.999
==== e(  21) =     6.58108 eV ==== 
     psi = 0.102*[#  22]+0.102*[#  26]+0.080*[#   5]+0.080*[#  15]+0.060*[#  24]
          +0.060*[#  28]+0.059*[#  10]+0.059*[#  20]+0.050*[#   8]+0.050*[#  18]
          +0.036*[#  23]+0.036*[#  27]+0.032*[#  21]+0.032*[#  25]+0.030*[#   9]
          +0.030*[#  19]+0.028*[#   7]+0.028*[#  17]+0.017*[#   6]+0.017*[#  16]
          
    |psi|^2 = 0.986
==== e(  22) =     6.58108 eV ==== 
     psi = 0.102*[#  22]+0.102*[#  26]+0.080*[#   5]+0.080*[#  15]+0.060*[#  24]
          +0.060*[#  28]+0.059*[#  10]+0.059*[#  20]+0.050*[#   8]+0.050*[#  18]
          +0.036*[#  23]+0.036*[#  27]+0.032*[#  21]+0.032*[#  25]+0.030*[#   9]
          +0.030*[#  19]+0.028*[#   7]+0.028*[#  17]+0.017*[#   6]+0.017*[#  16]
          
    |psi|^2 = 0.986
==== e(  23) =     8.08224 eV ==== 
     psi = 0.183*[#  22]+0.183*[#  26]+0.122*[#  24]+0.122*[#  28]+0.073*[#  23]
          +0.073*[#  27]+0.051*[#   5]+0.051*[#  15]+0.025*[#   8]+0.025*[#  18]
          +0.015*[#   9]+0.015*[#  19]+0.005*[#   7]+0.005*[#  17]+0.003*[#   6]
          +0.003*[#  16]+0.001*[#  10]+0.001*[#  20]
    |psi|^2 = 0.960
==== e(  24) =     8.08224 eV ==== 
     psi = 0.183*[#  22]+0.183*[#  26]+0.122*[#  24]+0.122*[#  28]+0.073*[#  23]
          +0.073*[#  27]+0.051*[#   5]+0.051*[#  15]+0.025*[#   8]+0.025*[#  18]
          +0.015*[#   9]+0.015*[#  19]+0.005*[#   7]+0.005*[#  17]+0.003*[#   6]
          +0.003*[#  16]+0.001*[#  10]+0.001*[#  20]
    |psi|^2 = 0.960
==== e(  25) =     8.49592 eV ==== 
     psi = 0.243*[#  23]+0.243*[#  27]+0.146*[#  24]+0.146*[#  28]+0.041*[#   9]
          +0.041*[#  19]+0.024*[#   8]+0.024*[#  18]+0.020*[#   6]+0.020*[#  16]
          +0.012*[#   7]+0.012*[#  17]
    |psi|^2 = 0.974
==== e(  26) =     8.49592 eV ==== 
     psi = 0.243*[#  23]+0.243*[#  27]+0.146*[#  24]+0.146*[#  28]+0.041*[#   9]
          +0.041*[#  19]+0.024*[#   8]+0.024*[#  18]+0.020*[#   6]+0.020*[#  16]
          +0.012*[#   7]+0.012*[#  17]
    |psi|^2 = 0.974
==== e(  27) =    14.08496 eV ==== 
     psi = 0.274*[#  10]+0.274*[#  20]+0.069*[#  22]+0.069*[#  26]+0.043*[#  21]
          +0.043*[#  25]+0.028*[#  24]+0.028*[#  28]+0.017*[#  23]+0.017*[#  27]
          
    |psi|^2 = 0.865
==== e(  28) =    14.08496 eV ==== 
     psi = 0.274*[#  10]+0.274*[#  20]+0.069*[#  22]+0.069*[#  26]+0.043*[#  21]
          +0.043*[#  25]+0.028*[#  24]+0.028*[#  28]+0.017*[#  23]+0.017*[#  27]
          
    |psi|^2 = 0.865
==== e(  29) =    18.60685 eV ==== 
     psi = 0.030*[#  10]+0.030*[#  20]+0.016*[#  24]+0.016*[#  28]+0.010*[#  23]
          +0.010*[#  27]+0.003*[#  22]+0.003*[#  26]+0.003*[#  21]+0.003*[#  25]
          
    |psi|^2 = 0.128
==== e(  30) =    18.60685 eV ==== 
     psi = 0.030*[#  10]+0.030*[#  20]+0.016*[#  24]+0.016*[#  28]+0.010*[#  23]
          +0.010*[#  27]+0.003*[#  22]+0.003*[#  26]+0.003*[#  21]+0.003*[#  25]
          
    |psi|^2 = 0.128
==== e(  31) =    20.72375 eV ==== 
     psi = 0.011*[#  22]+0.011*[#  26]+0.006*[#  10]+0.006*[#  20]+0.002*[#  24]
          +0.002*[#  28]+0.001*[#  23]+0.001*[#  27]
    |psi|^2 = 0.042
==== e(  32) =    20.72375 eV ==== 
     psi = 0.011*[#  22]+0.011*[#  26]+0.006*[#  10]+0.006*[#  20]+0.002*[#  24]
          +0.002*[#  28]+0.001*[#  23]+0.001*[#  27]
    |psi|^2 = 0.042
==== e(  33) =    22.74641 eV ==== 
     psi = 0.006*[#  23]+0.006*[#  27]+0.004*[#  24]+0.004*[#  28]
    |psi|^2 = 0.020
==== e(  34) =    22.74641 eV ==== 
     psi = 0.006*[#  23]+0.006*[#  27]+0.004*[#  24]+0.004*[#  28]
    |psi|^2 = 0.020
==== e(  35) =    26.13984 eV ==== 
     psi = 0.001*[#  22]+0.001*[#  26]
    |psi|^2 = 0.006
==== e(  36) =    26.13984 eV ==== 
     psi = 0.001*[#  22]+0.001*[#  26]
    |psi|^2 = 0.006
==== e(  37) =    30.09820 eV ==== 
 
    |psi|^2 = 0.000
==== e(  38) =    30.09820 eV ==== 
 
    |psi|^2 = 0.000
==== e(  39) =    31.51281 eV ==== 
     psi = 0.001*[#  22]+0.001*[#  26]
    |psi|^2 = 0.006
==== e(  40) =    31.51281 eV ==== 
     psi = 0.001*[#  22]+0.001*[#  26]
    |psi|^2 = 0.006
==== e(  41) =    33.61297 eV ==== 
 
    |psi|^2 = 0.003
==== e(  42) =    33.61297 eV ==== 
 
    |psi|^2 = 0.003
==== e(  43) =    35.82106 eV ==== 
     psi = 0.001*[#  23]+0.001*[#  27]
    |psi|^2 = 0.004
==== e(  44) =    35.82106 eV ==== 
     psi = 0.001*[#  23]+0.001*[#  27]
    |psi|^2 = 0.004
==== e(  45) =    37.44528 eV ==== 
 
    |psi|^2 = 0.004
==== e(  46) =    37.44528 eV ==== 
 
    |psi|^2 = 0.004
==== e(  47) =    39.36584 eV ==== 
 
    |psi|^2 = 0.002
==== e(  48) =    39.36584 eV ==== 
 
    |psi|^2 = 0.002
==== e(  49) =    41.54591 eV ==== 
 
    |psi|^2 = 0.002
==== e(  50) =    41.54591 eV ==== 
 
    |psi|^2 = 0.002
==== e(  51) =    41.64351 eV ==== 
 
    |psi|^2 = 0.001
==== e(  52) =    41.64351 eV ==== 
 
    |psi|^2 = 0.001

 k =   0.3000000000  0.1732050808  0.3121020699
==== e(   1) =  -116.00723 eV ==== 
     psi = 0.498*[#   1]+0.498*[#  11]
    |psi|^2 = 1.000
==== e(   2) =  -116.00723 eV ==== 
     psi = 0.498*[#   1]+0.498*[#  11]
    |psi|^2 = 1.000
==== e(   3) =   -69.66952 eV ==== 
     psi = 0.458*[#   2]+0.458*[#  12]+0.026*[#   4]+0.026*[#  14]+0.016*[#   3]
          +0.016*[#  13]
    |psi|^2 = 1.000
==== e(   4) =   -69.66952 eV ==== 
     psi = 0.458*[#   2]+0.458*[#  12]+0.026*[#   4]+0.026*[#  14]+0.016*[#   3]
          +0.016*[#  13]
    |psi|^2 = 1.000
==== e(   5) =   -69.64637 eV ==== 
     psi = 0.286*[#   4]+0.286*[#  14]+0.172*[#   3]+0.172*[#  13]+0.041*[#   2]
          +0.041*[#  12]
    |psi|^2 = 1.000
==== e(   6) =   -69.64637 eV ==== 
     psi = 0.286*[#   4]+0.286*[#  14]+0.172*[#   3]+0.172*[#  13]+0.041*[#   2]
          +0.041*[#  12]
    |psi|^2 = 1.000
==== e(   7) =   -69.62605 eV ==== 
     psi = 0.312*[#   3]+0.312*[#  13]+0.188*[#   4]+0.188*[#  14]
    |psi|^2 = 1.000
==== e(   8) =   -69.62605 eV ==== 
     psi = 0.312*[#   3]+0.312*[#  13]+0.188*[#   4]+0.188*[#  14]
    |psi|^2 = 1.000
==== e(   9) =    -7.66331 eV ==== 
     psi = 0.428*[#  21]+0.428*[#  25]+0.057*[#  10]+0.057*[#  20]+0.004*[#   5]
          +0.004*[#  15]+0.003*[#   8]+0.003*[#  18]+0.002*[#   9]+0.002*[#  19]
          +0.002*[#   7]+0.002*[#  17]
    |psi|^2 = 0.997
==== e(  10) =    -7.66331 eV ==== 
     psi = 0.428*[#  21]+0.428*[#  25]+0.057*[#  10]+0.057*[#  20]+0.004*[#   5]
          +0.004*[#  15]+0.003*[#   8]+0.003*[#  18]+0.002*[#   9]+0.002*[#  19]
          +0.002*[#   7]+0.002*[#  17]
    |psi|^2 = 0.997
==== e(  11) =     2.98522 eV ==== 
     psi = 0.077*[#   8]+0.077*[#  18]+0.065*[#  22]+0.065*[#  26]+0.063*[#   7]
          +0.063*[#  17]+0.061*[#   5]+0.061*[#  15]+0.059*[#  24]+0.059*[#  28]
          +0.052*[#  10]+0.052*[#  20]+0.046*[#   9]+0.046*[#  19]+0.038*[#   6]
          +0.038*[#  16]+0.035*[#  23]+0.035*[#  27]+0.002*[#  21]+0.002*[#  25]
          
    |psi|^2 = 0.998
==== e(  12) =     2.98522 eV ==== 
     psi = 0.077*[#   8]+0.077*[#  18]+0.065*[#  22]+0.065*[#  26]+0.063*[#   7]
          +0.063*[#  17]+0.061*[#   5]+0.061*[#  15]+0.059*[#  24]+0.059*[#  28]
          +0.052*[#  10]+0.052*[#  20]+0.046*[#   9]+0.046*[#  19]+0.038*[#   6]
          +0.038*[#  16]+0.035*[#  23]+0.035*[#  27]+0.002*[#  21]+0.002*[#  25]
          
    |psi|^2 = 0.998
==== e(  13) =     3.56101 eV ==== 
     psi = 0.149*[#   9]+0.149*[#  19]+0.102*[#   6]+0.102*[#  16]+0.090*[#   8]
          +0.090*[#  18]+0.062*[#   7]+0.062*[#  17]+0.058*[#  23]+0.058*[#  27]
          +0.037*[#  24]+0.037*[#  28]+0.001*[#   5]+0.001*[#  15]
    |psi|^2 = 0.998
==== e(  14) =     3.56101 eV ==== 
     psi = 0.149*[#   9]+0.149*[#  19]+0.102*[#   6]+0.102*[#  16]+0.090*[#   8]
          +0.090*[#  18]+0.062*[#   7]+0.062*[#  17]+0.058*[#  23]+0.058*[#  27]
          +0.037*[#  24]+0.037*[#  28]+0.001*[#   5]+0.001*[#  15]
    |psi|^2 = 0.998
==== e(  15) =     3.56375 eV ==== 
     psi = 0.263*[#   5]+0.263*[#  15]+0.072*[#   8]+0.072*[#  18]+0.054*[#  22]
          +0.054*[#  26]+0.044*[#   9]+0.044*[#  19]+0.027*[#  24]+0.027*[#  28]
          +0.019*[#  23]+0.019*[#  27]+0.008*[#   7]+0.008*[#  17]+0.006*[#  10]
          +0.006*[#  20]+0.005*[#   6]+0.005*[#  16]
    |psi|^2 = 0.997
==== e(  16) =     3.56375 eV ==== 
     psi = 0.263*[#   5]+0.263*[#  15]+0.072*[#   8]+0.072*[#  18]+0.054*[#  22]
          +0.054*[#  26]+0.044*[#   9]+0.044*[#  19]+0.027*[#  24]+0.027*[#  28]
          +0.019*[#  23]+0.019*[#  27]+0.008*[#   7]+0.008*[#  17]+0.006*[#  10]
          +0.006*[#  20]+0.005*[#   6]+0.005*[#  16]
    |psi|^2 = 0.997
==== e(  17) =     4.40763 eV ==== 
     psi = 0.186*[#   6]+0.186*[#  16]+0.126*[#   9]+0.126*[#  19]+0.111*[#   7]
          +0.111*[#  17]+0.076*[#   8]+0.076*[#  18]
    |psi|^2 = 1.000
==== e(  18) =     4.40763 eV ==== 
     psi = 0.186*[#   6]+0.186*[#  16]+0.126*[#   9]+0.126*[#  19]+0.111*[#   7]
          +0.111*[#  17]+0.076*[#   8]+0.076*[#  18]
    |psi|^2 = 1.000
==== e(  19) =     4.45084 eV ==== 
     psi = 0.197*[#   7]+0.197*[#  17]+0.118*[#   6]+0.118*[#  16]+0.078*[#   8]
          +0.078*[#  18]+0.049*[#   5]+0.049*[#  15]+0.047*[#   9]+0.047*[#  19]
          +0.004*[#  10]+0.004*[#  20]+0.003*[#  22]+0.003*[#  26]+0.002*[#  21]
          +0.002*[#  25]
    |psi|^2 = 0.999
==== e(  20) =     4.45084 eV ==== 
     psi = 0.197*[#   7]+0.197*[#  17]+0.118*[#   6]+0.118*[#  16]+0.078*[#   8]
          +0.078*[#  18]+0.049*[#   5]+0.049*[#  15]+0.047*[#   9]+0.047*[#  19]
          +0.004*[#  10]+0.004*[#  20]+0.003*[#  22]+0.003*[#  26]+0.002*[#  21]
          +0.002*[#  25]
    |psi|^2 = 0.999
==== e(  21) =     6.27801 eV ==== 
     psi = 0.080*[#  24]+0.080*[#  28]+0.065*[#  22]+0.065*[#  26]+0.063*[#   8]
          +0.063*[#  18]+0.055*[#   5]+0.055*[#  15]+0.054*[#  10]+0.054*[#  20]
          +0.048*[#  23]+0.048*[#  27]+0.039*[#   7]+0.039*[#  17]+0.037*[#   9]
          +0.037*[#  19]+0.026*[#  21]+0.026*[#  25]+0.024*[#   6]+0.024*[#  16]
          
    |psi|^2 = 0.983
==== e(  22) =     6.27801 eV ==== 
     psi = 0.080*[#  24]+0.080*[#  28]+0.065*[#  22]+0.065*[#  26]+0.063*[#   8]
          +0.063*[#  18]+0.055*[#   5]+0.055*[#  15]+0.054*[#  10]+0.054*[#  20]
          +0.048*[#  23]+0.048*[#  27]+0.039*[#   7]+0.039*[#  17]+0.037*[#   9]
          +0.037*[#  19]+0.026*[#  21]+0.026*[#  25]+0.024*[#   6]+0.024*[#  16]
          
    |psi|^2 = 0.983
==== e(  23) =     8.01273 eV ==== 
     psi = 0.236*[#  22]+0.236*[#  26]+0.089*[#  24]+0.089*[#  28]+0.064*[#   5]
          +0.064*[#  15]+0.053*[#  23]+0.053*[#  27]+0.018*[#   8]+0.018*[#  18]
          +0.011*[#   9]+0.011*[#  19]+0.003*[#  10]+0.003*[#  20]+0.003*[#   7]
          +0.003*[#  17]+0.002*[#   6]+0.002*[#  16]+0.001*[#  21]+0.001*[#  25]
          
    |psi|^2 = 0.963
==== e(  24) =     8.01273 eV ==== 
     psi = 0.236*[#  22]+0.236*[#  26]+0.089*[#  24]+0.089*[#  28]+0.064*[#   5]
          +0.064*[#  15]+0.053*[#  23]+0.053*[#  27]+0.018*[#   8]+0.018*[#  18]
          +0.011*[#   9]+0.011*[#  19]+0.003*[#  10]+0.003*[#  20]+0.003*[#   7]
          +0.003*[#  17]+0.002*[#   6]+0.002*[#  16]+0.001*[#  21]+0.001*[#  25]
          
    |psi|^2 = 0.963
==== e(  25) =     8.30477 eV ==== 
     psi = 0.244*[#  23]+0.244*[#  27]+0.146*[#  24]+0.146*[#  28]+0.036*[#   9]
          +0.036*[#  19]+0.024*[#   6]+0.024*[#  16]+0.022*[#   8]+0.022*[#  18]
          +0.014*[#   7]+0.014*[#  17]
    |psi|^2 = 0.972
==== e(  26) =     8.30477 eV ==== 
     psi = 0.244*[#  23]+0.244*[#  27]+0.146*[#  24]+0.146*[#  28]+0.036*[#   9]
          +0.036*[#  19]+0.024*[#   6]+0.024*[#  16]+0.022*[#   8]+0.022*[#  18]
          +0.014*[#   7]+0.014*[#  17]
    |psi|^2 = 0.972
==== e(  27) =    14.38060 eV ==== 
     psi = 0.255*[#  10]+0.255*[#  20]+0.054*[#  22]+0.054*[#  26]+0.034*[#  21]
          +0.034*[#  25]+0.025*[#  24]+0.025*[#  28]+0.015*[#  23]+0.015*[#  27]
          
    |psi|^2 = 0.770
==== e(  28) =    14.38060 eV ==== 
     psi = 0.255*[#  10]+0.255*[#  20]+0.054*[#  22]+0.054*[#  26]+0.034*[#  21]
          +0.034*[#  25]+0.025*[#  24]+0.025*[#  28]+0.015*[#  23]+0.015*[#  27]
          
    |psi|^2 = 0.770
==== e(  29) =    18.30323 eV ==== 
     psi = 0.061*[#  10]+0.061*[#  20]+0.025*[#  24]+0.025*[#  28]+0.015*[#  23]
          +0.015*[#  27]+0.007*[#  22]+0.007*[#  26]+0.004*[#  21]+0.004*[#  25]
          
    |psi|^2 = 0.226
==== e(  30) =    18.30323 eV ==== 
     psi = 0.061*[#  10]+0.061*[#  20]+0.025*[#  24]+0.025*[#  28]+0.015*[#  23]
          +0.015*[#  27]+0.007*[#  22]+0.007*[#  26]+0.004*[#  21]+0.004*[#  25]
          
    |psi|^2 = 0.226
==== e(  31) =    20.64375 eV ==== 
     psi = 0.010*[#  22]+0.010*[#  26]+0.006*[#  10]+0.006*[#  20]+0.002*[#  24]
          +0.002*[#  28]
    |psi|^2 = 0.038
==== e(  32) =    20.64375 eV ==== 
     psi = 0.010*[#  22]+0.010*[#  26]+0.006*[#  10]+0.006*[#  20]+0.002*[#  24]
          +0.002*[#  28]
    |psi|^2 = 0.038
==== e(  33) =    22.84361 eV ==== 
     psi = 0.007*[#  23]+0.007*[#  27]+0.004*[#  24]+0.004*[#  28]
    |psi|^2 = 0.023
==== e(  34) =    22.84361 eV ==== 
     psi = 0.007*[#  23]+0.007*[#  27]+0.004*[#  24]+0.004*[#  28]
    |psi|^2 = 0.023
==== e(  35) =    25.75621 eV ==== 
     psi = 0.001*[#  22]+0.001*[#  26]
    |psi|^2 = 0.008
==== e(  36) =    25.75621 eV ==== 
     psi = 0.001*[#  22]+0.001*[#  26]
    |psi|^2 = 0.008
==== e(  37) =    30.50813 eV ==== 
 
    |psi|^2 = 0.000
==== e(  38) =    30.50813 eV ==== 
 
    |psi|^2 = 0.000
==== e(  39) =    31.39378 eV ==== 
     psi = 0.002*[#  22]+0.002*[#  26]
    |psi|^2 = 0.006
==== e(  40) =    31.39378 eV ==== 
     psi = 0.002*[#  22]+0.002*[#  26]
    |psi|^2 = 0.006
==== e(  41) =    34.52717 eV ==== 
 
    |psi|^2 = 0.003
==== e(  42) =    34.52717 eV ==== 
 
    |psi|^2 = 0.003
==== e(  43) =    36.09443 eV ==== 
     psi = 0.001*[#  23]+0.001*[#  27]
    |psi|^2 = 0.004
==== e(  44) =    36.09443 eV ==== 
     psi = 0.001*[#  23]+0.001*[#  27]
    |psi|^2 = 0.004
==== e(  45) =    37.70211 eV ==== 
 
    |psi|^2 = 0.002
==== e(  46) =    37.70211 eV ==== 
 
    |psi|^2 = 0.002
==== e(  47) =    39.89820 eV ==== 
 
    |psi|^2 = 0.001
==== e(  48) =    39.89820 eV ==== 
 
    |psi|^2 = 0.001
==== e(  49) =    41.72705 eV ==== 
 
    |psi|^2 = 0.001
==== e(  50) =    41.72705 eV ==== 
 
    |psi|^2 = 0.001
==== e(  51) =    42.31848 eV ==== 
 
    |psi|^2 = 0.001
==== e(  52) =    42.31848 eV ==== 
 
    |psi|^2 = 0.001

 k =   0.3500000000  0.2020725942  0.3121020699
==== e(   1) =  -116.00723 eV ==== 
     psi = 0.498*[#   1]+0.498*[#  11]
    |psi|^2 = 1.000
==== e(   2) =  -116.00723 eV ==== 
     psi = 0.498*[#   1]+0.498*[#  11]
    |psi|^2 = 1.000
==== e(   3) =   -69.67370 eV ==== 
     psi = 0.263*[#   2]+0.263*[#  12]+0.147*[#   4]+0.147*[#  14]+0.089*[#   3]
          +0.089*[#  13]
    |psi|^2 = 1.000
==== e(   4) =   -69.67370 eV ==== 
     psi = 0.263*[#   2]+0.263*[#  12]+0.147*[#   4]+0.147*[#  14]+0.089*[#   3]
          +0.089*[#  13]
    |psi|^2 = 1.000
==== e(   5) =   -69.65243 eV ==== 
     psi = 0.236*[#   2]+0.236*[#  12]+0.165*[#   4]+0.165*[#  14]+0.099*[#   3]
          +0.099*[#  13]
    |psi|^2 = 1.000
==== e(   6) =   -69.65243 eV ==== 
     psi = 0.236*[#   2]+0.236*[#  12]+0.165*[#   4]+0.165*[#  14]+0.099*[#   3]
          +0.099*[#  13]
    |psi|^2 = 1.000
==== e(   7) =   -69.63212 eV ==== 
     psi = 0.312*[#   3]+0.312*[#  13]+0.187*[#   4]+0.187*[#  14]
    |psi|^2 = 1.000
==== e(   8) =   -69.63212 eV ==== 
     psi = 0.312*[#   3]+0.312*[#  13]+0.187*[#   4]+0.187*[#  14]
    |psi|^2 = 1.000
==== e(   9) =    -7.59393 eV ==== 
     psi = 0.441*[#  21]+0.441*[#  25]+0.042*[#  10]+0.042*[#  20]+0.004*[#   8]
          +0.004*[#  18]+0.004*[#   5]+0.004*[#  15]+0.003*[#   9]+0.003*[#  19]
          +0.002*[#   7]+0.002*[#  17]+0.001*[#   6]+0.001*[#  16]
    |psi|^2 = 0.996
==== e(  10) =    -7.59393 eV ==== 
     psi = 0.441*[#  21]+0.441*[#  25]+0.042*[#  10]+0.042*[#  20]+0.004*[#   8]
          +0.004*[#  18]+0.004*[#   5]+0.004*[#  15]+0.003*[#   9]+0.003*[#  19]
          +0.002*[#   7]+0.002*[#  17]+0.001*[#   6]+0.001*[#  16]
    |psi|^2 = 0.996
==== e(  11) =     2.97525 eV ==== 
     psi = 0.072*[#   8]+0.072*[#  18]+0.068*[#   7]+0.068*[#  17]+0.065*[#  22]
          +0.065*[#  26]+0.064*[#  24]+0.064*[#  28]+0.054*[#   5]+0.054*[#  15]
          +0.052*[#  10]+0.052*[#  20]+0.043*[#   9]+0.043*[#  19]+0.041*[#   6]
          +0.041*[#  16]+0.038*[#  23]+0.038*[#  27]+0.001*[#  21]+0.001*[#  25]
          
    |psi|^2 = 0.997
==== e(  12) =     2.97525 eV ==== 
     psi = 0.072*[#   8]+0.072*[#  18]+0.068*[#   7]+0.068*[#  17]+0.065*[#  22]
          +0.065*[#  26]+0.064*[#  24]+0.064*[#  28]+0.054*[#   5]+0.054*[#  15]
          +0.052*[#  10]+0.052*[#  20]+0.043*[#   9]+0.043*[#  19]+0.041*[#   6]
          +0.041*[#  16]+0.038*[#  23]+0.038*[#  27]+0.001*[#  21]+0.001*[#  25]
          
    |psi|^2 = 0.997
==== e(  13) =     3.61363 eV ==== 
     psi = 0.130*[#   9]+0.130*[#  19]+0.124*[#   6]+0.124*[#  16]+0.078*[#   8]
          +0.078*[#  18]+0.074*[#   7]+0.074*[#  17]+0.058*[#  23]+0.058*[#  27]
          +0.035*[#  24]+0.035*[#  28]
    |psi|^2 = 0.998
==== e(  14) =     3.61363 eV ==== 
     psi = 0.130*[#   9]+0.130*[#  19]+0.124*[#   6]+0.124*[#  16]+0.078*[#   8]
          +0.078*[#  18]+0.074*[#   7]+0.074*[#  17]+0.058*[#  23]+0.058*[#  27]
          +0.035*[#  24]+0.035*[#  28]
    |psi|^2 = 0.998
==== e(  15) =     3.63372 eV ==== 
     psi = 0.274*[#   5]+0.274*[#  15]+0.059*[#   8]+0.059*[#  18]+0.050*[#  22]
          +0.050*[#  26]+0.035*[#   9]+0.035*[#  19]+0.032*[#  24]+0.032*[#  28]
          +0.020*[#  23]+0.020*[#  27]+0.013*[#   7]+0.013*[#  17]+0.008*[#  10]
          +0.008*[#  20]+0.008*[#   6]+0.008*[#  16]
    |psi|^2 = 0.996
==== e(  16) =     3.63372 eV ==== 
     psi = 0.274*[#   5]+0.274*[#  15]+0.059*[#   8]+0.059*[#  18]+0.050*[#  22]
          +0.050*[#  26]+0.035*[#   9]+0.035*[#  19]+0.032*[#  24]+0.032*[#  28]
          +0.020*[#  23]+0.020*[#  27]+0.013*[#   7]+0.013*[#  17]+0.008*[#  10]
          +0.008*[#  20]+0.008*[#   6]+0.008*[#  16]
    |psi|^2 = 0.996
==== e(  17) =     4.40735 eV ==== 
     psi = 0.161*[#   6]+0.161*[#  16]+0.151*[#   9]+0.151*[#  19]+0.097*[#   7]
          +0.097*[#  17]+0.091*[#   8]+0.091*[#  18]
    |psi|^2 = 1.000
==== e(  18) =     4.40735 eV ==== 
     psi = 0.161*[#   6]+0.161*[#  16]+0.151*[#   9]+0.151*[#  19]+0.097*[#   7]
          +0.097*[#  17]+0.091*[#   8]+0.091*[#  18]
    |psi|^2 = 1.000
==== e(  19) =     4.47077 eV ==== 
     psi = 0.171*[#   7]+0.171*[#  17]+0.102*[#   6]+0.102*[#  16]+0.096*[#   8]
          +0.096*[#  18]+0.060*[#   5]+0.060*[#  15]+0.058*[#   9]+0.058*[#  19]
          +0.004*[#  10]+0.004*[#  20]+0.003*[#  21]+0.003*[#  25]+0.003*[#  22]
          +0.003*[#  26]
    |psi|^2 = 0.998
==== e(  20) =     4.47077 eV ==== 
     psi = 0.171*[#   7]+0.171*[#  17]+0.102*[#   6]+0.102*[#  16]+0.096*[#   8]
          +0.096*[#  18]+0.060*[#   5]+0.060*[#  15]+0.058*[#   9]+0.058*[#  19]
          +0.004*[#  10]+0.004*[#  20]+0.003*[#  21]+0.003*[#  25]+0.003*[#  22]
          +0.003*[#  26]
    |psi|^2 = 0.998
==== e(  21) =     5.92737 eV ==== 
     psi = 0.089*[#  24]+0.089*[#  28]+0.065*[#   8]+0.065*[#  18]+0.057*[#   7]
          +0.057*[#  17]+0.054*[#  23]+0.054*[#  27]+0.051*[#  10]+0.051*[#  20]
          +0.045*[#  22]+0.045*[#  26]+0.039*[#   9]+0.039*[#  19]+0.037*[#   5]
          +0.037*[#  15]+0.034*[#   6]+0.034*[#  16]+0.019*[#  21]+0.019*[#  25]
          
    |psi|^2 = 0.981
==== e(  22) =     5.92737 eV ==== 
     psi = 0.089*[#  24]+0.089*[#  28]+0.065*[#   8]+0.065*[#  18]+0.057*[#   7]
          +0.057*[#  17]+0.054*[#  23]+0.054*[#  27]+0.051*[#  10]+0.051*[#  20]
          +0.045*[#  22]+0.045*[#  26]+0.039*[#   9]+0.039*[#  19]+0.037*[#   5]
          +0.037*[#  15]+0.034*[#   6]+0.034*[#  16]+0.019*[#  21]+0.019*[#  25]
          
    |psi|^2 = 0.981
==== e(  23) =     8.00382 eV ==== 
     psi = 0.272*[#  22]+0.272*[#  26]+0.069*[#   5]+0.069*[#  15]+0.068*[#  24]
          +0.068*[#  28]+0.041*[#  23]+0.041*[#  27]+0.015*[#   8]+0.015*[#  18]
          +0.009*[#   9]+0.009*[#  19]+0.005*[#  10]+0.005*[#  20]+0.002*[#   7]
          +0.002*[#  17]+0.002*[#  21]+0.002*[#  25]+0.001*[#   6]+0.001*[#  16]
          
    |psi|^2 = 0.967
==== e(  24) =     8.00382 eV ==== 
     psi = 0.272*[#  22]+0.272*[#  26]+0.069*[#   5]+0.069*[#  15]+0.068*[#  24]
          +0.068*[#  28]+0.041*[#  23]+0.041*[#  27]+0.015*[#   8]+0.015*[#  18]
          +0.009*[#   9]+0.009*[#  19]+0.005*[#  10]+0.005*[#  20]+0.002*[#   7]
          +0.002*[#  17]+0.002*[#  21]+0.002*[#  25]+0.001*[#   6]+0.001*[#  16]
          
    |psi|^2 = 0.967
==== e(  25) =     8.13274 eV ==== 
     psi = 0.244*[#  23]+0.244*[#  27]+0.147*[#  24]+0.147*[#  28]+0.031*[#   9]
          +0.031*[#  19]+0.027*[#   6]+0.027*[#  16]+0.019*[#   8]+0.019*[#  18]
          +0.016*[#   7]+0.016*[#  17]
    |psi|^2 = 0.970
==== e(  26) =     8.13274 eV ==== 
     psi = 0.244*[#  23]+0.244*[#  27]+0.147*[#  24]+0.147*[#  28]+0.031*[#   9]
          +0.031*[#  19]+0.027*[#   6]+0.027*[#  16]+0.019*[#   8]+0.019*[#  18]
          +0.016*[#   7]+0.016*[#  17]
    |psi|^2 = 0.970
==== e(  27) =    14.61669 eV ==== 
     psi = 0.219*[#  10]+0.219*[#  20]+0.038*[#  22]+0.038*[#  26]+0.025*[#  21]
          +0.025*[#  25]+0.020*[#  24]+0.020*[#  28]+0.012*[#  23]+0.012*[#  27]
          
    |psi|^2 = 0.631
==== e(  28) =    14.61669 eV ==== 
     psi = 0.219*[#  10]+0.219*[#  20]+0.038*[#  22]+0.038*[#  26]+0.025*[#  21]
          +0.025*[#  25]+0.020*[#  24]+0.020*[#  28]+0.012*[#  23]+0.012*[#  27]
          
    |psi|^2 = 0.631
==== e(  29) =    18.03944 eV ==== 
     psi = 0.109*[#  10]+0.109*[#  20]+0.034*[#  24]+0.034*[#  28]+0.020*[#  23]
          +0.020*[#  27]+0.013*[#  22]+0.013*[#  26]+0.005*[#  21]+0.005*[#  25]
          
    |psi|^2 = 0.366
==== e(  30) =    18.03944 eV ==== 
     psi = 0.109*[#  10]+0.109*[#  20]+0.034*[#  24]+0.034*[#  28]+0.020*[#  23]
          +0.020*[#  27]+0.013*[#  22]+0.013*[#  26]+0.005*[#  21]+0.005*[#  25]
          
    |psi|^2 = 0.366
==== e(  31) =    20.57782 eV ==== 
     psi = 0.008*[#  22]+0.008*[#  26]+0.006*[#  10]+0.006*[#  20]+0.001*[#  24]
          +0.001*[#  28]
    |psi|^2 = 0.034
==== e(  32) =    20.57782 eV ==== 
     psi = 0.008*[#  22]+0.008*[#  26]+0.006*[#  10]+0.006*[#  20]+0.001*[#  24]
          +0.001*[#  28]
    |psi|^2 = 0.034
==== e(  33) =    22.90748 eV ==== 
     psi = 0.007*[#  23]+0.007*[#  27]+0.004*[#  24]+0.004*[#  28]
    |psi|^2 = 0.025
==== e(  34) =    22.90748 eV ==== 
     psi = 0.007*[#  23]+0.007*[#  27]+0.004*[#  24]+0.004*[#  28]
    |psi|^2 = 0.025
==== e(  35) =    25.52608 eV ==== 
     psi = 0.002*[#  10]+0.002*[#  20]+0.002*[#  22]+0.002*[#  26]+0.001*[#  24]
          +0.001*[#  28]
    |psi|^2 = 0.013
==== e(  36) =    25.52608 eV ==== 
     psi = 0.002*[#  10]+0.002*[#  20]+0.002*[#  22]+0.002*[#  26]+0.001*[#  24]
          +0.001*[#  28]
    |psi|^2 = 0.013
==== e(  37) =    31.00980 eV ==== 
 
    |psi|^2 = 0.001
==== e(  38) =    31.00980 eV ==== 
 
    |psi|^2 = 0.001
==== e(  39) =    31.24006 eV ==== 
     psi = 0.002*[#  22]+0.002*[#  26]
    |psi|^2 = 0.007
==== e(  40) =    31.24006 eV ==== 
     psi = 0.002*[#  22]+0.002*[#  26]
    |psi|^2 = 0.007
==== e(  41) =    34.87299 eV ==== 
 
    |psi|^2 = 0.004
==== e(  42) =    34.87299 eV ==== 
 
    |psi|^2 = 0.004
==== e(  43) =    36.16818 eV ==== 
     psi = 0.001*[#  23]+0.001*[#  27]
    |psi|^2 = 0.004
==== e(  44) =    36.16818 eV ==== 
     psi = 0.001*[#  23]+0.001*[#  27]
    |psi|^2 = 0.004
==== e(  45) =    38.36046 eV ==== 
 
    |psi|^2 = 0.002
==== e(  46) =    38.36046 eV ==== 
 
    |psi|^2 = 0.002
==== e(  47) =    40.49580 eV ==== 
 
    |psi|^2 = 0.001
==== e(  48) =    40.49580 eV ==== 
 
    |psi|^2 = 0.001
==== e(  49) =    41.85822 eV ==== 
 
    |psi|^2 = 0.000
==== e(  50) =    41.85822 eV ==== 
 
    |psi|^2 = 0.000
==== e(  51) =    43.11892 eV ==== 
 
    |psi|^2 = 0.001
==== e(  52) =    43.11892 eV ==== 
 
    |psi|^2 = 0.001

 k =   0.4000000000  0.2309401077  0.3121020699
==== e(   1) =  -116.00723 eV ==== 
     psi = 0.498*[#   1]+0.498*[#  11]
    |psi|^2 = 1.000
==== e(   2) =  -116.00723 eV ==== 
     psi = 0.498*[#   1]+0.498*[#  11]
    |psi|^2 = 1.000
==== e(   3) =   -69.66842 eV ==== 
     psi = 0.403*[#   2]+0.403*[#  12]+0.061*[#   4]+0.061*[#  14]+0.036*[#   3]
          +0.036*[#  13]
    |psi|^2 = 1.000
==== e(   4) =   -69.66842 eV ==== 
     psi = 0.403*[#   2]+0.403*[#  12]+0.061*[#   4]+0.061*[#  14]+0.036*[#   3]
          +0.036*[#  13]
    |psi|^2 = 1.000
==== e(   5) =   -69.65814 eV ==== 
     psi = 0.251*[#   4]+0.251*[#  14]+0.151*[#   3]+0.151*[#  13]+0.097*[#   2]
          +0.097*[#  12]
    |psi|^2 = 1.000
==== e(   6) =   -69.65814 eV ==== 
     psi = 0.251*[#   4]+0.251*[#  14]+0.151*[#   3]+0.151*[#  13]+0.097*[#   2]
          +0.097*[#  12]
    |psi|^2 = 1.000
==== e(   7) =   -69.64100 eV ==== 
     psi = 0.312*[#   3]+0.312*[#  13]+0.188*[#   4]+0.188*[#  14]
    |psi|^2 = 1.000
==== e(   8) =   -69.64100 eV ==== 
     psi = 0.312*[#   3]+0.312*[#  13]+0.188*[#   4]+0.188*[#  14]
    |psi|^2 = 1.000
==== e(   9) =    -7.53762 eV ==== 
     psi = 0.452*[#  21]+0.452*[#  25]+0.030*[#  10]+0.030*[#  20]+0.005*[#   8]
          +0.005*[#  18]+0.004*[#   5]+0.004*[#  15]+0.003*[#   9]+0.003*[#  19]
          +0.002*[#   7]+0.002*[#  17]+0.001*[#   6]+0.001*[#  16]
    |psi|^2 = 0.995
==== e(  10) =    -7.53762 eV ==== 
     psi = 0.452*[#  21]+0.452*[#  25]+0.030*[#  10]+0.030*[#  20]+0.005*[#   8]
          +0.005*[#  18]+0.004*[#   5]+0.004*[#  15]+0.003*[#   9]+0.003*[#  19]
          +0.002*[#   7]+0.002*[#  17]+0.001*[#   6]+0.001*[#  16]
    |psi|^2 = 0.995
==== e(  11) =     2.98075 eV ==== 
     psi = 0.074*[#   7]+0.074*[#  17]+0.066*[#  24]+0.066*[#  28]+0.065*[#  22]
          +0.065*[#  26]+0.063*[#   8]+0.063*[#  18]+0.053*[#   5]+0.053*[#  15]
          +0.052*[#  10]+0.052*[#  20]+0.045*[#   6]+0.045*[#  16]+0.040*[#  23]
          +0.040*[#  27]+0.038*[#   9]+0.038*[#  19]+0.001*[#  21]+0.001*[#  25]
          
    |psi|^2 = 0.996
==== e(  12) =     2.98075 eV ==== 
     psi = 0.074*[#   7]+0.074*[#  17]+0.066*[#  24]+0.066*[#  28]+0.065*[#  22]
          +0.065*[#  26]+0.063*[#   8]+0.063*[#  18]+0.053*[#   5]+0.053*[#  15]
          +0.052*[#  10]+0.052*[#  20]+0.045*[#   6]+0.045*[#  16]+0.040*[#  23]
          +0.040*[#  27]+0.038*[#   9]+0.038*[#  19]+0.001*[#  21]+0.001*[#  25]
          
    |psi|^2 = 0.996
==== e(  13) =     3.65508 eV ==== 
     psi = 0.142*[#   6]+0.142*[#  16]+0.113*[#   9]+0.113*[#  19]+0.085*[#   7]
          +0.085*[#  17]+0.068*[#   8]+0.068*[#  18]+0.057*[#  23]+0.057*[#  27]
          +0.034*[#  24]+0.034*[#  28]
    |psi|^2 = 0.998
==== e(  14) =     3.65508 eV ==== 
     psi = 0.142*[#   6]+0.142*[#  16]+0.113*[#   9]+0.113*[#  19]+0.085*[#   7]
          +0.085*[#  17]+0.068*[#   8]+0.068*[#  18]+0.057*[#  23]+0.057*[#  27]
          +0.034*[#  24]+0.034*[#  28]
    |psi|^2 = 0.998
==== e(  15) =     3.71050 eV ==== 
     psi = 0.281*[#   5]+0.281*[#  15]+0.045*[#  22]+0.045*[#  26]+0.039*[#   8]
          +0.039*[#  18]+0.038*[#  24]+0.038*[#  28]+0.024*[#   9]+0.024*[#  19]
          +0.023*[#  23]+0.023*[#  27]+0.022*[#   7]+0.022*[#  17]+0.013*[#   6]
          +0.013*[#  16]+0.009*[#  10]+0.009*[#  20]+0.001*[#  21]+0.001*[#  25]
          
    |psi|^2 = 0.994
==== e(  16) =     3.71050 eV ==== 
     psi = 0.281*[#   5]+0.281*[#  15]+0.045*[#  22]+0.045*[#  26]+0.039*[#   8]
          +0.039*[#  18]+0.038*[#  24]+0.038*[#  28]+0.024*[#   9]+0.024*[#  19]
          +0.023*[#  23]+0.023*[#  27]+0.022*[#   7]+0.022*[#  17]+0.013*[#   6]
          +0.013*[#  16]+0.009*[#  10]+0.009*[#  20]+0.001*[#  21]+0.001*[#  25]
          
    |psi|^2 = 0.994
==== e(  17) =     4.41448 eV ==== 
     psi = 0.172*[#   9]+0.172*[#  19]+0.140*[#   6]+0.140*[#  16]+0.103*[#   8]
          +0.103*[#  18]+0.084*[#   7]+0.084*[#  17]
    |psi|^2 = 1.000
==== e(  18) =     4.41448 eV ==== 
     psi = 0.172*[#   9]+0.172*[#  19]+0.140*[#   6]+0.140*[#  16]+0.103*[#   8]
          +0.103*[#  18]+0.084*[#   7]+0.084*[#  17]
    |psi|^2 = 1.000
==== e(  19) =     4.50243 eV ==== 
     psi = 0.131*[#   7]+0.131*[#   8]+0.131*[#  17]+0.131*[#  18]+0.078*[#   6]
          +0.078*[#   9]+0.078*[#  16]+0.078*[#  19]+0.066*[#   5]+0.066*[#  15]
          +0.006*[#  21]+0.006*[#  25]+0.004*[#  10]+0.004*[#  20]+0.002*[#  22]
          +0.002*[#  26]+0.001*[#  24]+0.001*[#  28]
    |psi|^2 = 0.996
==== e(  20) =     4.50243 eV ==== 
     psi = 0.131*[#   7]+0.131*[#   8]+0.131*[#  17]+0.131*[#  18]+0.078*[#   6]
          +0.078*[#   9]+0.078*[#  16]+0.078*[#  19]+0.066*[#   5]+0.066*[#  15]
          +0.006*[#  21]+0.006*[#  25]+0.004*[#  10]+0.004*[#  20]+0.002*[#  22]
[...]
          +0.065*[#   7]+0.065*[#  16]+0.065*[#  17]+0.052*[#   8]+0.052*[#  18]
          +0.052*[#   9]+0.052*[#  19]+0.022*[#  23]+0.022*[#  24]+0.022*[#  27]
          +0.022*[#  28]+0.005*[#  10]+0.005*[#  20]
    |psi|^2 = 0.995
==== e(  14) =     4.02019 eV ==== 
     psi = 0.164*[#   6]+0.164*[#   7]+0.164*[#  16]+0.164*[#  17]+0.070*[#  24]
          +0.070*[#  28]+0.069*[#  23]+0.069*[#  27]+0.013*[#   8]+0.013*[#   9]
          +0.013*[#  18]+0.013*[#  19]
    |psi|^2 = 0.989
==== e(  15) =     4.15171 eV ==== 
     psi = 0.201*[#   5]+0.201*[#  15]+0.119*[#   6]+0.119*[#  16]+0.118*[#   7]
          +0.118*[#  17]+0.013*[#  10]+0.013*[#  20]+0.012*[#  23]+0.012*[#  24]
          +0.012*[#  27]+0.012*[#  28]+0.010*[#  22]+0.010*[#  26]+0.008*[#   8]
          +0.008*[#  18]+0.007*[#   9]+0.007*[#  19]
    |psi|^2 = 0.999
==== e(  16) =     4.15181 eV ==== 
     psi = 0.201*[#   5]+0.201*[#  15]+0.118*[#   7]+0.118*[#  17]+0.118*[#   6]
          +0.118*[#  16]+0.013*[#  10]+0.013*[#  20]+0.012*[#  23]+0.012*[#  27]
          +0.012*[#  24]+0.012*[#  28]+0.010*[#  22]+0.010*[#  26]+0.008*[#   9]
          +0.008*[#  19]+0.007*[#   8]+0.007*[#  18]
    |psi|^2 = 0.999
==== e(  17) =     4.23082 eV ==== 
     psi = 0.236*[#   9]+0.236*[#  19]+0.236*[#   8]+0.236*[#  18]+0.008*[#   6]
          +0.008*[#  16]+0.008*[#   7]+0.008*[#  17]+0.005*[#  23]+0.005*[#  24]
          +0.005*[#  27]+0.005*[#  28]
    |psi|^2 = 0.994
==== e(  18) =     4.28150 eV ==== 
     psi = 0.243*[#   8]+0.243*[#  18]+0.242*[#   9]+0.242*[#  19]+0.007*[#   7]
          +0.007*[#  17]+0.007*[#   6]+0.007*[#  16]
    |psi|^2 = 0.999
==== e(  19) =     4.54774 eV ==== 
     psi = 0.127*[#   8]+0.127*[#  18]+0.126*[#   9]+0.126*[#  19]+0.081*[#   5]
          +0.081*[#  15]+0.041*[#  23]+0.041*[#  24]+0.041*[#  27]+0.041*[#  28]
          +0.036*[#  10]+0.036*[#  20]+0.015*[#   6]+0.015*[#   7]+0.015*[#  16]
          +0.015*[#  17]+0.013*[#  22]+0.013*[#  26]+0.005*[#  21]+0.005*[#  25]
          
    |psi|^2 = 0.999
==== e(  20) =     4.54785 eV ==== 
     psi = 0.127*[#   9]+0.127*[#  19]+0.126*[#   8]+0.126*[#  18]+0.081*[#   5]
          +0.081*[#  15]+0.041*[#  23]+0.041*[#  24]+0.041*[#  27]+0.041*[#  28]
          +0.036*[#  10]+0.036*[#  20]+0.015*[#   6]+0.015*[#   7]+0.015*[#  16]
          +0.015*[#  17]+0.013*[#  22]+0.013*[#  26]+0.005*[#  21]+0.005*[#  25]
          
    |psi|^2 = 0.999
==== e(  21) =     5.43830 eV ==== 
     psi = 0.157*[#  24]+0.157*[#  28]+0.157*[#  23]+0.157*[#  27]+0.077*[#   6]
          +0.077*[#  16]+0.077*[#   7]+0.077*[#  17]
    |psi|^2 = 0.937
==== e(  22) =     5.55979 eV ==== 
     psi = 0.096*[#  23]+0.096*[#  27]+0.096*[#  24]+0.096*[#  28]+0.076*[#  10]
          +0.076*[#  20]+0.041*[#   9]+0.041*[#  19]+0.041*[#   8]+0.041*[#  18]
          +0.038*[#   7]+0.038*[#  17]+0.037*[#   6]+0.037*[#  16]+0.029*[#  22]
          +0.029*[#  26]+0.024*[#   5]+0.024*[#  15]+0.018*[#  21]+0.018*[#  25]
          
    |psi|^2 = 0.994
==== e(  23) =     5.56015 eV ==== 
     psi = 0.096*[#  23]+0.096*[#  24]+0.096*[#  27]+0.096*[#  28]+0.076*[#  10]
          +0.076*[#  20]+0.041*[#   8]+0.041*[#  18]+0.041*[#   9]+0.041*[#  19]
          +0.038*[#   6]+0.038*[#   7]+0.038*[#  16]+0.038*[#  17]+0.029*[#  22]
          +0.029*[#  26]+0.024*[#   5]+0.024*[#  15]+0.018*[#  21]+0.018*[#  25]
          
    |psi|^2 = 0.994
==== e(  24) =     7.46179 eV ==== 
     psi = 0.335*[#  22]+0.335*[#  26]+0.051*[#   5]+0.051*[#  15]+0.017*[#   8]
          +0.017*[#   9]+0.017*[#  18]+0.017*[#  19]+0.016*[#  23]+0.016*[#  24]
          +0.016*[#  27]+0.016*[#  28]+0.012*[#   6]+0.012*[#   7]+0.012*[#  16]
          +0.012*[#  17]
    |psi|^2 = 0.952
==== e(  25) =     7.46293 eV ==== 
     psi = 0.335*[#  22]+0.335*[#  26]+0.051*[#   5]+0.051*[#  15]+0.017*[#   8]
          +0.017*[#   9]+0.017*[#  18]+0.017*[#  19]+0.016*[#  23]+0.016*[#  27]
          +0.016*[#  24]+0.016*[#  28]+0.012*[#   6]+0.012*[#  16]+0.012*[#   7]
          +0.012*[#  17]
    |psi|^2 = 0.952
==== e(  26) =     7.55677 eV ==== 
     psi = 0.185*[#  24]+0.185*[#  28]+0.185*[#  23]+0.185*[#  27]+0.050*[#   7]
          +0.050*[#  17]+0.050*[#   6]+0.050*[#  16]+0.001*[#   8]+0.001*[#   9]
          +0.001*[#  18]+0.001*[#  19]
    |psi|^2 = 0.947
==== e(  27) =    16.93583 eV ==== 
     psi = 0.326*[#  10]+0.326*[#  20]+0.057*[#  23]+0.057*[#  24]+0.057*[#  27]
          +0.057*[#  28]+0.009*[#  21]+0.009*[#  25]+0.007*[#  22]+0.007*[#  26]
          +0.002*[#   1]+0.002*[#  11]
    |psi|^2 = 0.919
==== e(  28) =    16.93633 eV ==== 
     psi = 0.326*[#  10]+0.326*[#  20]+0.057*[#  23]+0.057*[#  27]+0.057*[#  24]
          +0.057*[#  28]+0.009*[#  21]+0.009*[#  25]+0.007*[#  22]+0.007*[#  26]
          +0.002*[#   1]+0.002*[#  11]
    |psi|^2 = 0.920
==== e(  29) =    16.98827 eV ==== 
     psi = 0.006*[#  24]+0.006*[#  28]+0.005*[#  23]+0.005*[#  27]+0.001*[#   6]
          +0.001*[#   7]+0.001*[#  16]+0.001*[#  17]
    |psi|^2 = 0.027
==== e(  30) =    17.52177 eV ==== 
     psi = 0.016*[#  23]+0.016*[#  24]+0.016*[#  27]+0.016*[#  28]
    |psi|^2 = 0.070
==== e(  31) =    19.90542 eV ==== 
     psi = 0.025*[#  22]+0.025*[#  26]+0.022*[#  10]+0.022*[#  20]+0.001*[#   5]
          +0.001*[#  15]+0.001*[#  23]+0.001*[#  24]+0.001*[#  27]+0.001*[#  28]
          
    |psi|^2 = 0.103
==== e(  32) =    19.90711 eV ==== 
     psi = 0.025*[#  22]+0.025*[#  26]+0.022*[#  10]+0.022*[#  20]+0.001*[#   5]
          +0.001*[#  15]+0.001*[#  23]+0.001*[#  24]+0.001*[#  27]+0.001*[#  28]
          
    |psi|^2 = 0.103
==== e(  33) =    22.39924 eV ==== 
     psi = 0.005*[#  23]+0.005*[#  24]+0.005*[#  27]+0.005*[#  28]
    |psi|^2 = 0.023
==== e(  34) =    23.05407 eV ==== 
     psi = 0.002*[#  10]+0.002*[#  20]+0.002*[#  23]+0.002*[#  24]+0.002*[#  27]
          +0.002*[#  28]+0.001*[#  21]+0.001*[#  25]+0.001*[#  22]+0.001*[#  26]
          
    |psi|^2 = 0.018
==== e(  35) =    23.05556 eV ==== 
     psi = 0.002*[#  10]+0.002*[#  20]+0.002*[#  23]+0.002*[#  24]+0.002*[#  27]
          +0.002*[#  28]+0.001*[#  21]+0.001*[#  25]+0.001*[#  22]+0.001*[#  26]
          
    |psi|^2 = 0.018
==== e(  36) =    30.04972 eV ==== 
 
    |psi|^2 = 0.004
==== e(  37) =    30.49629 eV ==== 
     psi = 0.001*[#  10]+0.001*[#  20]
    |psi|^2 = 0.006
==== e(  38) =    30.49667 eV ==== 
     psi = 0.001*[#  10]+0.001*[#  20]
    |psi|^2 = 0.006
==== e(  39) =    31.95705 eV ==== 
 
    |psi|^2 = 0.003
==== e(  40) =    33.95766 eV ==== 
 
    |psi|^2 = 0.001
==== e(  41) =    35.11294 eV ==== 
 
    |psi|^2 = 0.003
==== e(  42) =    35.11302 eV ==== 
 
    |psi|^2 = 0.003
==== e(  43) =    35.94492 eV ==== 
 
    |psi|^2 = 0.003
==== e(  44) =    35.94526 eV ==== 
 
    |psi|^2 = 0.003
==== e(  45) =    36.41350 eV ==== 
 
    |psi|^2 = 0.002
==== e(  46) =    37.00263 eV ==== 
 
    |psi|^2 = 0.004
==== e(  47) =    38.32013 eV ==== 
     psi = 0.002*[#  22]+0.002*[#  26]
    |psi|^2 = 0.004
==== e(  48) =    38.32344 eV ==== 
     psi = 0.002*[#  22]+0.002*[#  26]
    |psi|^2 = 0.004
==== e(  49) =    44.24812 eV ==== 
 
    |psi|^2 = 0.002
==== e(  50) =    44.24903 eV ==== 
 
    |psi|^2 = 0.002
==== e(  51) =    46.45738 eV ==== 
 
    |psi|^2 = 0.000
==== e(  52) =    46.90581 eV ==== 
 
    |psi|^2 = 0.001

 k =   0.3333333333  0.5773502692  0.0000000000
==== e(   1) =  -116.00718 eV ==== 
     psi = 0.497*[#   1]+0.497*[#  11]
    |psi|^2 = 1.000
==== e(   2) =  -116.00718 eV ==== 
     psi = 0.497*[#   1]+0.497*[#  11]
    |psi|^2 = 1.000
==== e(   3) =   -69.66188 eV ==== 
     psi = 0.499*[#   2]+0.499*[#  12]
    |psi|^2 = 1.000
==== e(   4) =   -69.66179 eV ==== 
     psi = 0.499*[#   2]+0.499*[#  12]
    |psi|^2 = 1.000
==== e(   5) =   -69.65434 eV ==== 
     psi = 0.250*[#   3]+0.250*[#  13]+0.249*[#   4]+0.249*[#  14]
    |psi|^2 = 1.000
==== e(   6) =   -69.64283 eV ==== 
     psi = 0.251*[#   3]+0.251*[#  13]+0.249*[#   4]+0.249*[#  14]
    |psi|^2 = 1.000
==== e(   7) =   -69.64282 eV ==== 
     psi = 0.250*[#   4]+0.250*[#  14]+0.249*[#   3]+0.249*[#  13]
    |psi|^2 = 1.000
==== e(   8) =   -69.63124 eV ==== 
     psi = 0.250*[#   4]+0.250*[#  14]+0.249*[#   3]+0.249*[#  13]
    |psi|^2 = 1.000
==== e(   9) =    -7.44156 eV ==== 
     psi = 0.463*[#  21]+0.463*[#  25]+0.014*[#  10]+0.014*[#  20]+0.006*[#   8]
          +0.006*[#   9]+0.006*[#  18]+0.006*[#  19]+0.004*[#   5]+0.004*[#  15]
          +0.002*[#   6]+0.002*[#   7]+0.002*[#  16]+0.002*[#  17]
    |psi|^2 = 0.995
==== e(  10) =    -7.44135 eV ==== 
     psi = 0.463*[#  21]+0.463*[#  25]+0.014*[#  10]+0.014*[#  20]+0.006*[#   8]
          +0.006*[#   9]+0.006*[#  18]+0.006*[#  19]+0.004*[#   5]+0.004*[#  15]
          +0.002*[#   6]+0.002*[#   7]+0.002*[#  16]+0.002*[#  17]
    |psi|^2 = 0.995
==== e(  11) =     3.24359 eV ==== 
     psi = 0.191*[#   7]+0.191*[#  17]+0.191*[#   6]+0.191*[#  16]+0.053*[#  24]
          +0.053*[#  28]+0.053*[#  23]+0.053*[#  27]+0.006*[#   8]+0.006*[#   9]
          +0.006*[#  18]+0.006*[#  19]
    |psi|^2 = 0.998
==== e(  12) =     3.60867 eV ==== 
     psi = 0.164*[#   5]+0.164*[#  15]+0.078*[#  22]+0.078*[#  26]+0.055*[#   6]
          +0.055*[#  16]+0.054*[#   7]+0.054*[#  17]+0.051*[#   8]+0.051*[#   9]
          +0.051*[#  18]+0.051*[#  19]+0.021*[#  23]+0.021*[#  24]+0.021*[#  27]
          +0.021*[#  28]+0.003*[#  10]+0.003*[#  20]
    |psi|^2 = 0.995
==== e(  13) =     3.60890 eV ==== 
     psi = 0.163*[#   5]+0.163*[#  15]+0.078*[#  22]+0.078*[#  26]+0.055*[#   6]
          +0.055*[#   7]+0.055*[#  16]+0.055*[#  17]+0.051*[#   8]+0.051*[#  18]
          +0.051*[#   9]+0.051*[#  19]+0.021*[#  23]+0.021*[#  24]+0.021*[#  27]
          +0.021*[#  28]+0.003*[#  10]+0.003*[#  20]
    |psi|^2 = 0.995
==== e(  14) =     4.05979 eV ==== 
     psi = 0.160*[#   6]+0.160*[#   7]+0.160*[#  16]+0.160*[#  17]+0.072*[#  24]
          +0.072*[#  28]+0.071*[#  23]+0.071*[#  27]+0.015*[#   9]+0.015*[#  19]
          +0.015*[#   8]+0.015*[#  18]
    |psi|^2 = 0.989
==== e(  15) =     4.19133 eV ==== 
     psi = 0.189*[#   5]+0.189*[#  15]+0.142*[#   6]+0.142*[#  16]+0.141*[#   7]
          +0.141*[#  17]+0.009*[#  10]+0.009*[#  20]+0.006*[#  23]+0.006*[#  24]
          +0.006*[#  27]+0.006*[#  28]+0.004*[#  22]+0.004*[#  26]
    |psi|^2 = 0.998
==== e(  16) =     4.19138 eV ==== 
     psi = 0.189*[#   5]+0.189*[#  15]+0.142*[#   7]+0.142*[#  17]+0.141*[#   6]
          +0.141*[#  16]+0.009*[#  10]+0.009*[#  20]+0.006*[#  23]+0.006*[#  24]
          +0.006*[#  27]+0.006*[#  28]+0.004*[#  22]+0.004*[#  26]
    |psi|^2 = 0.998
==== e(  17) =     4.23256 eV ==== 
     psi = 0.234*[#   9]+0.234*[#  19]+0.233*[#   8]+0.233*[#  18]+0.009*[#   6]
          +0.009*[#  16]+0.009*[#   7]+0.009*[#  17]+0.006*[#  23]+0.006*[#  24]
          +0.006*[#  27]+0.006*[#  28]
    |psi|^2 = 0.993
==== e(  18) =     4.30930 eV ==== 
     psi = 0.243*[#   8]+0.243*[#  18]+0.242*[#   9]+0.242*[#  19]+0.007*[#   7]
          +0.007*[#  17]+0.007*[#   6]+0.007*[#  16]
    |psi|^2 = 0.999
==== e(  19) =     4.52281 eV ==== 
     psi = 0.133*[#   8]+0.133*[#  18]+0.133*[#   9]+0.133*[#  19]+0.068*[#   5]
          +0.068*[#  15]+0.048*[#  23]+0.048*[#  24]+0.048*[#  27]+0.048*[#  28]
          +0.043*[#  10]+0.043*[#  20]+0.018*[#  22]+0.018*[#  26]+0.005*[#  21]
          +0.005*[#  25]+0.002*[#   6]+0.002*[#   7]+0.002*[#  16]+0.002*[#  17]
          
    |psi|^2 = 0.999
==== e(  20) =     4.52300 eV ==== 
     psi = 0.134*[#   9]+0.134*[#  19]+0.133*[#   8]+0.133*[#  18]+0.068*[#   5]
          +0.068*[#  15]+0.048*[#  23]+0.048*[#  24]+0.048*[#  27]+0.048*[#  28]
          +0.043*[#  10]+0.043*[#  20]+0.018*[#  22]+0.018*[#  26]+0.005*[#  21]
          +0.005*[#  25]+0.002*[#   6]+0.002*[#   7]+0.002*[#  16]+0.002*[#  17]
          
    |psi|^2 = 0.999
==== e(  21) =     5.42792 eV ==== 
     psi = 0.153*[#  24]+0.153*[#  28]+0.153*[#  23]+0.153*[#  27]+0.081*[#   6]
          +0.081*[#  16]+0.080*[#   7]+0.080*[#  17]
    |psi|^2 = 0.937
==== e(  22) =     5.57870 eV ==== 
     psi = 0.097*[#  23]+0.097*[#  27]+0.097*[#  24]+0.097*[#  28]+0.076*[#  10]
          +0.076*[#  20]+0.042*[#   9]+0.042*[#  19]+0.042*[#   8]+0.042*[#  18]
          +0.037*[#   7]+0.037*[#  17]+0.037*[#   6]+0.037*[#  16]+0.027*[#  22]
          +0.027*[#  26]+0.024*[#   5]+0.024*[#  15]+0.019*[#  21]+0.019*[#  25]
          
    |psi|^2 = 0.994
==== e(  23) =     5.57909 eV ==== 
     psi = 0.097*[#  23]+0.097*[#  24]+0.097*[#  27]+0.097*[#  28]+0.076*[#  10]
          +0.076*[#  20]+0.042*[#   8]+0.042*[#  18]+0.042*[#   9]+0.042*[#  19]
          +0.037*[#   6]+0.037*[#   7]+0.037*[#  16]+0.037*[#  17]+0.027*[#  22]
          +0.027*[#  26]+0.024*[#   5]+0.024*[#  15]+0.019*[#  21]+0.019*[#  25]
          
    |psi|^2 = 0.994
==== e(  24) =     7.41430 eV ==== 
     psi = 0.337*[#  22]+0.337*[#  26]+0.049*[#   5]+0.049*[#  15]+0.018*[#   8]
          +0.018*[#   9]+0.018*[#  18]+0.018*[#  19]+0.014*[#  23]+0.014*[#  24]
          +0.014*[#  27]+0.014*[#  28]+0.013*[#   6]+0.013*[#   7]+0.013*[#  16]
          +0.013*[#  17]
    |psi|^2 = 0.952
==== e(  25) =     7.41547 eV ==== 
     psi = 0.337*[#  22]+0.337*[#  26]+0.049*[#   5]+0.049*[#  15]+0.018*[#   8]
          +0.018*[#   9]+0.018*[#  18]+0.018*[#  19]+0.014*[#  23]+0.014*[#  27]
          +0.014*[#  24]+0.014*[#  28]+0.013*[#   6]+0.013*[#   7]+0.013*[#  16]
          +0.013*[#  17]
    |psi|^2 = 0.952
==== e(  26) =     7.58356 eV ==== 
     psi = 0.185*[#  23]+0.185*[#  24]+0.185*[#  27]+0.185*[#  28]+0.050*[#   6]
          +0.050*[#   7]+0.050*[#  16]+0.050*[#  17]+0.001*[#   8]+0.001*[#   9]
          +0.001*[#  18]+0.001*[#  19]
    |psi|^2 = 0.948
==== e(  27) =    16.93343 eV ==== 
     psi = 0.329*[#  10]+0.329*[#  20]+0.058*[#  23]+0.058*[#  24]+0.058*[#  27]
          +0.058*[#  28]+0.009*[#  21]+0.009*[#  25]+0.007*[#  22]+0.007*[#  26]
          +0.002*[#   1]+0.002*[#  11]
    |psi|^2 = 0.930
==== e(  28) =    16.93391 eV ==== 
     psi = 0.329*[#  10]+0.329*[#  20]+0.059*[#  23]+0.059*[#  27]+0.058*[#  24]
          +0.058*[#  28]+0.009*[#  21]+0.009*[#  25]+0.007*[#  22]+0.007*[#  26]
          +0.002*[#   1]+0.002*[#  11]
    |psi|^2 = 0.930
==== e(  29) =    16.97984 eV ==== 
     psi = 0.005*[#  24]+0.005*[#  28]+0.005*[#  23]+0.005*[#  27]+0.001*[#   6]
          +0.001*[#   7]+0.001*[#  16]+0.001*[#  17]
    |psi|^2 = 0.025
==== e(  30) =    17.53354 eV ==== 
     psi = 0.016*[#  23]+0.016*[#  24]+0.016*[#  27]+0.016*[#  28]
    |psi|^2 = 0.070
==== e(  31) =    20.04503 eV ==== 
     psi = 0.026*[#  22]+0.026*[#  26]+0.018*[#  10]+0.018*[#  20]+0.001*[#   5]
          +0.001*[#  15]
    |psi|^2 = 0.093
==== e(  32) =    20.04672 eV ==== 
     psi = 0.026*[#  22]+0.026*[#  26]+0.018*[#  10]+0.018*[#  20]+0.001*[#   5]
          +0.001*[#  15]
    |psi|^2 = 0.093
==== e(  33) =    22.35514 eV ==== 
     psi = 0.005*[#  23]+0.005*[#  24]+0.005*[#  27]+0.005*[#  28]
    |psi|^2 = 0.023
==== e(  34) =    22.91361 eV ==== 
     psi = 0.003*[#  10]+0.003*[#  20]+0.002*[#  23]+0.002*[#  24]+0.002*[#  27]
          +0.002*[#  28]+0.002*[#  21]+0.002*[#  25]
    |psi|^2 = 0.018
==== e(  35) =    22.91516 eV ==== 
     psi = 0.003*[#  10]+0.003*[#  20]+0.002*[#  23]+0.002*[#  24]+0.002*[#  27]
          +0.002*[#  28]+0.002*[#  21]+0.002*[#  25]
    |psi|^2 = 0.018
==== e(  36) =    30.45415 eV ==== 
     psi = 0.001*[#  23]+0.001*[#  24]+0.001*[#  27]+0.001*[#  28]
    |psi|^2 = 0.006
==== e(  37) =    30.59812 eV ==== 
     psi = 0.001*[#  10]+0.001*[#  20]
    |psi|^2 = 0.006
==== e(  38) =    30.59850 eV ==== 
     psi = 0.001*[#  10]+0.001*[#  20]
    |psi|^2 = 0.006
==== e(  39) =    31.75684 eV ==== 
 
    |psi|^2 = 0.000
==== e(  40) =    34.03111 eV ==== 
 
    |psi|^2 = 0.001
==== e(  41) =    35.32854 eV ==== 
 
    |psi|^2 = 0.001
==== e(  42) =    35.32952 eV ==== 
 
    |psi|^2 = 0.001
==== e(  43) =    35.56683 eV ==== 
     psi = 0.001*[#  10]+0.001*[#  20]
    |psi|^2 = 0.005
==== e(  44) =    35.56823 eV ==== 
     psi = 0.001*[#  10]+0.001*[#  20]
    |psi|^2 = 0.005
==== e(  45) =    36.16387 eV ==== 
 
    |psi|^2 = 0.003
==== e(  46) =    36.89450 eV ==== 
     psi = 0.001*[#  23]+0.001*[#  24]+0.001*[#  27]+0.001*[#  28]
    |psi|^2 = 0.004
==== e(  47) =    38.35919 eV ==== 
     psi = 0.002*[#  22]+0.002*[#  26]
    |psi|^2 = 0.005
==== e(  48) =    38.36262 eV ==== 
     psi = 0.002*[#  22]+0.002*[#  26]
    |psi|^2 = 0.005
==== e(  49) =    44.21880 eV ==== 
 
    |psi|^2 = 0.002
==== e(  50) =    44.21972 eV ==== 
 
    |psi|^2 = 0.002
==== e(  51) =    46.68244 eV ==== 
 
    |psi|^2 = 0.000
==== e(  52) =    46.91438 eV ==== 
 
    |psi|^2 = 0.000

Lowdin Charges: 

     Atom #   1: total charge =  18.6532, s =  2.6794, p =  5.9992, d =  9.9746, 
                 spin up      =   9.3266, s =  1.3397, 
                 spin up      =   9.3266, p =  2.9996, pz=  0.9998, px=  0.9999, py=  0.9999, 
                 spin up      =   9.3266, d =  4.9873, dz2=  0.9957, dxz=  0.9984, dyz=  0.9983, dx2-y2=  0.9972, dxy=  0.9977, 
                 spin down    =   9.3266, s =  1.3397, 
                 spin down    =   9.3266, p =  2.9996, pz=  0.9998, px=  0.9999, py=  0.9999, 
                 spin down    =   9.3266, d =  4.9873, dz2=  0.9957, dxz=  0.9984, dyz=  0.9983, dx2-y2=  0.9972, dxy=  0.9977, 
                 polarization =  -0.0000, s =  0.0000, p = -0.0000, d = -0.0000, 
     Atom #   2: total charge =  18.6532, s =  2.6794, p =  5.9992, d =  9.9746, 
                 spin up      =   9.3266, s =  1.3397, 
                 spin up      =   9.3266, p =  2.9996, pz=  0.9998, px=  0.9999, py=  0.9999, 
                 spin up      =   9.3266, d =  4.9873, dz2=  0.9957, dxz=  0.9984, dyz=  0.9983, dx2-y2=  0.9972, dxy=  0.9977, 
                 spin down    =   9.3266, s =  1.3397, 
                 spin down    =   9.3266, p =  2.9996, pz=  0.9998, px=  0.9999, py=  0.9999, 
                 spin down    =   9.3266, d =  4.9873, dz2=  0.9957, dxz=  0.9984, dyz=  0.9983, dx2-y2=  0.9972, dxy=  0.9977, 
                 polarization =  -0.0000, s =  0.0000, p = -0.0000, d = -0.0000, 
     Atom #   3: total charge =   7.1573, s =  1.8303, p =  5.3270, d =  0.0000, 
                 spin up      =   3.5786, s =  0.9151, 
                 spin up      =   3.5786, p =  2.6635, pz=  0.8557, px=  0.9179, py=  0.8899, 
                 spin up      =   3.5786, d =  0.0000, dz2=  0.0000, dxz=  0.0000, dyz=  0.0000, dx2-y2=  0.0000, dxy=  0.0000, 
                 spin down    =   3.5786, s =  0.9151, 
                 spin down    =   3.5786, p =  2.6635, pz=  0.8557, px=  0.9179, py=  0.8899, 
                 spin down    =   3.5786, d =  0.0000, dz2=  0.0000, dxz=  0.0000, dyz=  0.0000, dx2-y2=  0.0000, dxy=  0.0000, 
                 polarization =  -0.0000, s = -0.0000, p = -0.0000, d =  0.0000, 
     Atom #   4: total charge =   7.1573, s =  1.8303, p =  5.3270, d =  0.0000, 
                 spin up      =   3.5786, s =  0.9151, 
                 spin up      =   3.5786, p =  2.6635, pz=  0.8557, px=  0.9179, py=  0.8899, 
                 spin up      =   3.5786, d =  0.0000, dz2=  0.0000, dxz=  0.0000, dyz=  0.0000, dx2-y2=  0.0000, dxy=  0.0000, 
                 spin down    =   3.5786, s =  0.9151, 
                 spin down    =   3.5786, p =  2.6635, pz=  0.8557, px=  0.9179, py=  0.8899, 
                 spin down    =   3.5786, d =  0.0000, dz2=  0.0000, dxz=  0.0000, dyz=  0.0000, dx2-y2=  0.0000, dxy=  0.0000, 
                 polarization =  -0.0000, s = -0.0000, p = -0.0000, d =  0.0000, 
     Spilling Parameter:   0.0073
 
     PROJWFC      :      1.00s CPU      1.59s WALL

 
   This run was terminated on:  11:54:49  12Dec2022            

=------------------------------------------------------------------------------=
   JOB DONE.
=------------------------------------------------------------------------------=
