 
             +---------------------------------------------------+
             |                                                   |
             |                   WANNIER90                       |
             |                                                   |
             +---------------------------------------------------+
             |                                                   |
             |        Welcome to the Maximally-Localized         |
             |        Generalized Wannier Functions code         |
             |            http://www.wannier.org                 |
             |                                                   |
             |                                                   |
             |  Wannier90 Developer Group:                       |
             |    Giovanni Pizzi    (EPFL)                       |
             |    Valerio Vitale    (Cambridge)                  |
             |    David Vanderbilt  (Rutgers University)         |
             |    Nicola Marzari    (EPFL)                       |
             |    Ivo Souza         (Universidad del Pais Vasco) |
             |    Arash A. Mostofi  (Imperial College London)    |
             |    Jonathan R. Yates (University of Oxford)       |
             |                                                   |
             |  For the full list of Wannier90 3.x authors,      |
             |  please check the code documentation and the      |
             |  README on the GitHub page of the code            |
             |                                                   |
             |                                                   |
             |  Please cite                                      |
             |                                                   |
             |  [ref] "Wannier90 as a community code:            |
             |        new features and applications",            |
             |        G. Pizzi et al., J. Phys. Cond. Matt. 32,  |
             |        165902 (2020).                             |
             |        http://doi.org/10.1088/1361-648X/ab51ff    |
             |                                                   |
             |  in any publications arising from the use of      |
             |  this code. For the method please cite            |
             |                                                   |
             |  [ref] "Maximally Localized Generalised Wannier   |
             |         Functions for Composite Energy Bands"     |
             |         N. Marzari and D. Vanderbilt              |
             |         Phys. Rev. B 56 12847 (1997)              |
             |                                                   |
             |  [ref] "Maximally Localized Wannier Functions     |
             |         for Entangled Energy Bands"               |
             |         I. Souza, N. Marzari and D. Vanderbilt    |
             |         Phys. Rev. B 65 035109 (2001)             |
             |                                                   |
             |                                                   |
             | Copyright (c) 1996-2020                           |
             |        The Wannier90 Developer Group and          |
             |        individual contributors                    |
             |                                                   |
             |      Release: 3.1.0        5th March    2020      |
             |                                                   |
             | This program is free software; you can            |
             | redistribute it and/or modify it under the terms  |
             | of the GNU General Public License as published by |
             | the Free Software Foundation; either version 2 of |
             | the License, or (at your option) any later version|
             |                                                   |
             | This program is distributed in the hope that it   |
             | will be useful, but WITHOUT ANY WARRANTY; without |
             | even the implied warranty of MERCHANTABILITY or   |
             | FITNESS FOR A PARTICULAR PURPOSE. See the GNU     |
             | General Public License for more details.          |
             |                                                   |
             | You should have received a copy of the GNU General|
             | Public License along with this program; if not,   |
             | write to the Free Software Foundation, Inc.,      |
             | 675 Mass Ave, Cambridge, MA 02139, USA.           |
             |                                                   |
             +---------------------------------------------------+
             |    Execution started on 12Dec2022 at 12:04:12     |
             +---------------------------------------------------+
 
 ******************************************************************************
 * -> Using CODATA 2006 constant values                                       *
 *    (http://physics.nist.gov/cuu/Constants/index.html)                      *
 * -> Using Bohr value from CODATA                                            *
 ******************************************************************************
 

 Running in serial (with serial executable)
 
                                    ------
                                    SYSTEM
                                    ------
 
                              Lattice Vectors (Ang)
                    a_1     3.249450   0.000000   0.000000
                    a_2    -1.624725   2.814106   0.000000
                    a_3     0.000000   0.000000   5.205748
 
                   Unit Cell Volume:      47.60290  (Ang^3)
 
                        Reciprocal-Space Vectors (Ang^-1)
                    b_1     1.933615   1.116373   0.000000
                    b_2     0.000000   2.232747   0.000000
                    b_3     0.000000   0.000000   1.206971
  
 *----------------------------------------------------------------------------*
 |   Site       Fractional Coordinate          Cartesian Coordinate (Ang)     |
 +----------------------------------------------------------------------------+
 | Zn   1   0.33330   0.66670   0.50000   |   -0.00016   1.87616   2.60287    |
 | Zn   2   0.66670   0.33330   0.00000   |    1.62489   0.93794   0.00000    |
 | O    1   0.33330   0.66670   0.11725   |   -0.00016   1.87616   0.61037    |
 | O    2   0.66670   0.33330   0.61725   |    1.62489   0.93794   3.21325    |
 *----------------------------------------------------------------------------*
                                ------------
                                K-POINT GRID
                                ------------
  
             Grid size =  4 x  4 x  4      Total points =   64
  
  
 *---------------------------------- MAIN ------------------------------------*
 |  Number of Wannier Functions               :                16             |
 |  Number of Objective Wannier Functions     :                16             |
 |  Number of input Bloch states              :                16             |
 |  Output verbosity (1=low, 5=high)          :                 1             |
 |  Timing Level (1=low, 5=high)              :                 1             |
 |  Optimisation (0=memory, 3=speed)          :                 3             |
 |  Length Unit                               :               Ang             |
 |  Post-processing setup (write *.nnkp)      :                 F             |
 |  Using Gamma-only branch of algorithms     :                 F             |
 *----------------------------------------------------------------------------*
 *------------------------------- WANNIERISE ---------------------------------*
 |  Total number of iterations                :             10000             |
 |  Number of CG steps before reset           :                 5             |
 |  Trial step length for line search         :             2.000             |
 |  Convergence tolerence                     :         0.100E-07             |
 |  Convergence window                        :                 5             |
 |  Iterations between writing output         :                 1             |
 |  Iterations between backing up to disk     :               100             |
 |  Write r^2_nm to file                      :                 F             |
 |  Write xyz WF centres to file              :                 T             |
 |  Write on-site energies <0n|H|0n> to file  :                 F             |
 |  Use guiding centre to control phases      :                 T             |
 |  Use phases for initial projections        :                 F             |
 |  Iterations before starting guiding centres:                 0             |
 |  Iterations between using guiding centres  :                 1             |
 *----------------------------------------------------------------------------*
 *-------------------------------- PLOTTING ----------------------------------*
 |  Plotting interpolated bandstructure       :                 T             |
 |   Number of K-path sections                :                 6             |
 |   Divisions along first K-path section     :               100             |
 |   Output format                            :           gnuplot             |
 |   Output mode                              :               s-k             |
 *----------------------------------------------------------------------------*
 |   K-space path sections:                                                   |
 |    From: A       0.000  0.000  0.500     To: L       0.500  0.000  0.500   |
 |    From: L       0.500  0.000  0.500     To: M       0.500  0.000  0.000   |
 |    From: M       0.500  0.000  0.000     To: G       0.000  0.000  0.000   |
 |    From: G       0.000  0.000  0.000     To: A       0.000  0.000  0.500   |
 |    From: A       0.000  0.000  0.500     To: H       0.333  0.333  0.500   |
 |    From: H       0.333  0.333  0.500     To: K       0.333  0.333  0.000   |
 *----------------------------------------------------------------------------*
 |  Plotting Hamiltonian in WF basis          :                 T             |
 *----------------------------------------------------------------------------*
 Time to read parameters        0.007 (sec)

 *---------------------------------- K-MESH ----------------------------------*
 +----------------------------------------------------------------------------+
 |                    Distance to Nearest-Neighbour Shells                    |
 |                    ------------------------------------                    |
 |          Shell             Distance (Ang^-1)          Multiplicity         |
 |          -----             -----------------          ------------         |
 |             1                   0.301743                      2            |
 |             2                   0.558187                      6            |
 |             3                   0.603485                      2            |
 |             4                   0.634524                     12            |
 |             5                   0.822050                     12            |
 |             6                   0.905228                      2            |
 |             7                   0.966808                      6            |
 |             8                   1.012801                     12            |
 |             9                   1.063490                     12            |
 |            10                   1.116373                      6            |
 |            11                   1.139698                     12            |
 |            12                   1.156433                     12            |
 |            13                   1.206971                      2            |
 |            14                   1.269048                     12            |
 |            15                   1.324445                     12            |
 |            16                   1.329793                     12            |
 |            17                   1.437264                     12            |
 |            18                   1.476823                     12            |
 |            19                   1.507334                     24            |
 |            20                   1.508713                      2            |
 |            21                   1.546446                     12            |
 |            22                   1.595369                     24            |
 |            23                   1.608660                     12            |
 |            24                   1.644101                     12            |
 |            25                   1.674560                      6            |
 |            26                   1.701529                     12            |
 |            27                   1.732179                     24            |
 |            28                   1.779985                     12            |
 |            29                   1.791908                     12            |
 |            30                   1.810456                      2            |
 |            31                   1.876834                     12            |
 |            32                   1.894551                     12            |
 |            33                   1.903573                     12            |
 |            34                   1.907298                     24            |
 |            35                   1.933615                      6            |
 |            36                   1.957017                     12            |
 +----------------------------------------------------------------------------+
 | The b-vectors are chosen automatically                                     |
 | The following shells are used:   1,  2                                     |
 +----------------------------------------------------------------------------+
 |                        Shell   # Nearest-Neighbours                        |
 |                        -----   --------------------                        |
 |                          1               2                                 |
 |                          2               6                                 |
 +----------------------------------------------------------------------------+
 | Completeness relation is fully satisfied [Eq. (B1), PRB 56, 12847 (1997)]  |
 +----------------------------------------------------------------------------+
 |                  b_k Vectors (Ang^-1) and Weights (Ang^2)                  |
 |                  ----------------------------------------                  |
 |            No.         b_k(x)      b_k(y)      b_k(z)        w_b           |
 |            ---        --------------------------------     --------        |
 |             1         0.000000    0.000000    0.301743     5.491571        |
 |             2         0.000000    0.000000   -0.301743     5.491571        |
 |             3         0.000000    0.558187    0.000000     1.069843        |
 |             4         0.000000   -0.558187    0.000000     1.069843        |
 |             5         0.483404    0.279093    0.000000     1.069843        |
 |             6         0.483404   -0.279093    0.000000     1.069843        |
 |             7        -0.483404   -0.279093    0.000000     1.069843        |
 |             8        -0.483404    0.279093    0.000000     1.069843        |
 +----------------------------------------------------------------------------+
 |                           b_k Directions (Ang^-1)                          |
 |                           -----------------------                          |
 |            No.           x           y           z                         |
 |            ---        --------------------------------                     |
 |             1         0.000000    0.000000    0.301743                     |
 |             2         0.000000    0.558187    0.000000                     |
 |             3         0.483404    0.279093    0.000000                     |
 |             4         0.483404   -0.279093    0.000000                     |
 +----------------------------------------------------------------------------+
  
 Time to get kmesh              0.029 (sec)
 *============================================================================*
 |                              MEMORY ESTIMATE                               |
 |         Maximum RAM allocated during each phase of the calculation         |
 *============================================================================*
 |                            Wannierise:            5.37 Mb                  |
 |                          plot_wannier:            5.37 Mb                  |
 *----------------------------------------------------------------------------*
  
 Starting a new Wannier90 calculation ...


 Reading overlaps from wann.mmn    :  Created on 12Dec2022 at 12: 4:11

 Reading projections from wann.amn :  Created on 12Dec2022 at 12: 4:10

 Time to read overlaps          0.101 (sec)

 Writing checkpoint file wann.chk... done

 
 *------------------------------- WANNIERISE ---------------------------------*
 +--------------------------------------------------------------------+<-- CONV
 | Iter  Delta Spread     RMS Gradient      Spread (Ang^2)      Time  |<-- CONV
 +--------------------------------------------------------------------+<-- CONV
 
 ------------------------------------------------------------------------------
 Initial State
  WF centre and spread    1  ( -0.000162,  1.876166,  2.620581 )     0.42944809
  WF centre and spread    2  ( -0.000164,  1.873416,  2.589875 )     0.40512190
  WF centre and spread    3  ( -0.000164,  1.878955,  2.590059 )     0.40549762
  WF centre and spread    4  ( -0.000157,  1.860483,  2.607148 )     0.41015018
  WF centre and spread    5  ( -0.000173,  1.891818,  2.607141 )     0.41014303
  WF centre and spread    6  (  1.624887,  0.937940,  0.017707 )     0.42944959
  WF centre and spread    7  (  1.624889,  0.940690, -0.012999 )     0.40512284
  WF centre and spread    8  (  1.624889,  0.935151, -0.012816 )     0.40549855
  WF centre and spread    9  (  1.624882,  0.953623,  0.004274 )     0.41015035
  WF centre and spread   10  (  1.624898,  0.922288,  0.004266 )     0.41014320
  WF centre and spread   11  ( -0.000169,  1.876219,  0.672652 )     1.13686584
  WF centre and spread   12  ( -0.000134,  1.827871,  0.577273 )     1.05312052
  WF centre and spread   13  ( -0.000170,  1.926188,  0.577374 )     1.05272344
  WF centre and spread   14  (  1.624894,  0.937887,  3.275530 )     1.13686867
  WF centre and spread   15  (  1.624858,  0.986235,  3.180149 )     1.05312191
  WF centre and spread   16  (  1.624895,  0.887917,  3.180250 )     1.05272484
  Sum of centres and spreads ( 12.997799, 22.512848, 24.478463 )    10.60615057
 
      0     0.106E+02     0.0000000000       10.6061505712       0.00  <-- CONV
        O_D=      0.0037523 O_OD=      0.8508612 O_TOT=     10.6061506 <-- SPRD
 ------------------------------------------------------------------------------
 Cycle:      1
  WF centre and spread    1  ( -0.000162,  1.876163,  2.623859 )     0.42060073
  WF centre and spread    2  ( -0.000164,  1.874735,  2.590210 )     0.39339114
  WF centre and spread    3  ( -0.000164,  1.877644,  2.590387 )     0.39356047
  WF centre and spread    4  ( -0.000157,  1.859165,  2.605499 )     0.39754015
  WF centre and spread    5  ( -0.000172,  1.893075,  2.605495 )     0.39750911
  WF centre and spread    6  (  1.624887,  0.937943,  0.020985 )     0.42060236
  WF centre and spread    7  (  1.624888,  0.939371, -0.012665 )     0.39339209
  WF centre and spread    8  (  1.624889,  0.936462, -0.012488 )     0.39356142
  WF centre and spread    9  (  1.624882,  0.954941,  0.002625 )     0.39754019
  WF centre and spread   10  (  1.624897,  0.921031,  0.002620 )     0.39750915
  WF centre and spread   11  ( -0.000168,  1.876174,  0.670610 )     1.09569552
  WF centre and spread   12  ( -0.000132,  1.829508,  0.578107 )     1.01080690
  WF centre and spread   13  ( -0.000170,  1.924429,  0.578148 )     1.01076108
  WF centre and spread   14  (  1.624893,  0.937932,  3.273488 )     1.09569808
  WF centre and spread   15  (  1.624857,  0.984599,  3.180983 )     1.01080832
  WF centre and spread   16  (  1.624895,  0.889677,  3.181023 )     1.01076250
  Sum of centres and spreads ( 12.997799, 22.512848, 24.478886 )    10.23973922
 
      1    -0.366E+00     0.4071573876       10.2397392226       0.05  <-- CONV
        O_D=      0.0053520 O_OD=      0.4828502 O_TOT=     10.2397392 <-- SPRD
 Delta: O_D=  0.1599672E-02 O_OD= -0.3680110E+00 O_TOT= -0.3664113E+00 <-- DLTA
 ------------------------------------------------------------------------------
 Cycle:      2
  WF centre and spread    1  ( -0.000162,  1.876162,  2.625075 )     0.41932253
  WF centre and spread    2  ( -0.000163,  1.874966,  2.589881 )     0.39103765
  WF centre and spread    3  ( -0.000164,  1.877400,  2.590028 )     0.39105143
  WF centre and spread    4  ( -0.000157,  1.858506,  2.605255 )     0.39570696
  WF centre and spread    5  ( -0.000172,  1.893730,  2.605252 )     0.39569311
  WF centre and spread    6  (  1.624887,  0.937944,  0.022201 )     0.41932435
  WF centre and spread    7  (  1.624888,  0.939140, -0.012993 )     0.39103860
  WF centre and spread    8  (  1.624889,  0.936707, -0.012846 )     0.39105239
  WF centre and spread    9  (  1.624882,  0.955600,  0.002380 )     0.39570694
  WF centre and spread   10  (  1.624897,  0.920376,  0.002377 )     0.39569309
  WF centre and spread   11  ( -0.000167,  1.876162,  0.669848 )     1.07949806
  WF centre and spread   12  ( -0.000131,  1.830230,  0.578752 )     0.99728756
  WF centre and spread   13  ( -0.000170,  1.923647,  0.578767 )     0.99743221
  WF centre and spread   14  (  1.624892,  0.937944,  3.272726 )     1.07950076
  WF centre and spread   15  (  1.624856,  0.983877,  3.181628 )     0.99728899
  WF centre and spread   16  (  1.624895,  0.890458,  3.181643 )     0.99743364
  Sum of centres and spreads ( 12.997799, 22.512848, 24.479974 )    10.13406825
 
      2    -0.106E+00     0.3440790244       10.1340682466       0.06  <-- CONV
        O_D=      0.0034359 O_OD=      0.3790952 O_TOT=     10.1340682 <-- SPRD
 Delta: O_D= -0.1916070E-02 O_OD= -0.1037549E+00 O_TOT= -0.1056710E+00 <-- DLTA
 ------------------------------------------------------------------------------
 Cycle:      3
  WF centre and spread    1  ( -0.000162,  1.876157,  2.625493 )     0.42013729
  WF centre and spread    2  ( -0.000162,  1.874971,  2.589514 )     0.39038802
  WF centre and spread    3  ( -0.000164,  1.877383,  2.589627 )     0.39030175
  WF centre and spread    4  ( -0.000156,  1.858084,  2.605395 )     0.39513567
  WF centre and spread    5  ( -0.000172,  1.894153,  2.605391 )     0.39511447
  WF centre and spread    6  (  1.624886,  0.937949,  0.022619 )     0.42013915
  WF centre and spread    7  (  1.624887,  0.939135, -0.013361 )     0.39038896
  WF centre and spread    8  (  1.624889,  0.936723, -0.013248 )     0.39030269
  WF centre and spread    9  (  1.624881,  0.956023,  0.002521 )     0.39513560
  WF centre and spread   10  (  1.624896,  0.919953,  0.002517 )     0.39511441
  WF centre and spread   11  ( -0.000167,  1.876155,  0.669730 )     1.07042047
  WF centre and spread   12  ( -0.000130,  1.830548,  0.579002 )     0.98961020
  WF centre and spread   13  ( -0.000169,  1.923302,  0.579003 )     0.98981548
  WF centre and spread   14  (  1.624892,  0.937951,  3.272608 )     1.07042327
  WF centre and spread   15  (  1.624854,  0.983559,  3.181878 )     0.98961165
  WF centre and spread   16  (  1.624894,  0.890803,  3.181878 )     0.98981693
  Sum of centres and spreads ( 12.997799, 22.512848, 24.480566 )    10.08185601
 
      3    -0.522E-01     0.2613215262       10.0818560099       0.08  <-- CONV
        O_D=      0.0029362 O_OD=      0.3273827 O_TOT=     10.0818560 <-- SPRD
 Delta: O_D= -0.4997033E-03 O_OD= -0.5171253E-01 O_TOT= -0.5221224E-01 <-- DLTA
 ------------------------------------------------------------------------------
 Cycle:      4
  WF centre and spread    1  ( -0.000161,  1.876154,  2.625464 )     0.42008592
  WF centre and spread    2  ( -0.000162,  1.874929,  2.589279 )     0.39055698
  WF centre and spread    3  ( -0.000164,  1.877420,  2.589361 )     0.39046076
  WF centre and spread    4  ( -0.000156,  1.857862,  2.605552 )     0.39534305
  WF centre and spread    5  ( -0.000171,  1.894379,  2.605547 )     0.39532004
  WF centre and spread    6  (  1.624886,  0.937952,  0.022590 )     0.42008784
  WF centre and spread    7  (  1.624887,  0.939177, -0.013595 )     0.39055791
  WF centre and spread    8  (  1.624889,  0.936686, -0.013513 )     0.39046169
  WF centre and spread    9  (  1.624881,  0.956244,  0.002678 )     0.39534296
  WF centre and spread   10  (  1.624896,  0.919727,  0.002673 )     0.39531996
  WF centre and spread   11  ( -0.000167,  1.876146,  0.669856 )     1.06537624
  WF centre and spread   12  ( -0.000129,  1.830650,  0.579098 )     0.98636974
  WF centre and spread   13  ( -0.000169,  1.923201,  0.579092 )     0.98655941
  WF centre and spread   14  (  1.624892,  0.937960,  3.272734 )     1.06537905
  WF centre and spread   15  (  1.624854,  0.983456,  3.181974 )     0.98637120
  WF centre and spread   16  (  1.624894,  0.890904,  3.181968 )     0.98656087
  Sum of centres and spreads ( 12.997799, 22.512848, 24.480758 )    10.06015364
 
      4    -0.217E-01     0.1832417886       10.0601536351       0.09  <-- CONV
        O_D=      0.0026914 O_OD=      0.3059251 O_TOT=     10.0601536 <-- SPRD
 Delta: O_D= -0.2447609E-03 O_OD= -0.2145761E-01 O_TOT= -0.2170237E-01 <-- DLTA
 ------------------------------------------------------------------------------
 Cycle:      5
  WF centre and spread    1  ( -0.000161,  1.876154,  2.625513 )     0.42016596
  WF centre and spread    2  ( -0.000162,  1.874912,  2.589199 )     0.39057299
  WF centre and spread    3  ( -0.000164,  1.877435,  2.589262 )     0.39049044
  WF centre and spread    4  ( -0.000156,  1.857795,  2.605590 )     0.39549658
  WF centre and spread    5  ( -0.000171,  1.894449,  2.605584 )     0.39547368
  WF centre and spread    6  (  1.624886,  0.937952,  0.022639 )     0.42016790
  WF centre and spread    7  (  1.624887,  0.939194, -0.013676 )     0.39057392
  WF centre and spread    8  (  1.624889,  0.936671, -0.013612 )     0.39049137
  WF centre and spread    9  (  1.624881,  0.956312,  0.002715 )     0.39549649
  WF centre and spread   10  (  1.624896,  0.919657,  0.002710 )     0.39547359
  WF centre and spread   11  ( -0.000167,  1.876140,  0.669957 )     1.06423342
  WF centre and spread   12  ( -0.000129,  1.830660,  0.579109 )     0.98568397
  WF centre and spread   13  ( -0.000169,  1.923208,  0.579104 )     0.98583771
  WF centre and spread   14  (  1.624892,  0.937966,  3.272835 )     1.06423625
  WF centre and spread   15  (  1.624854,  0.983447,  3.181985 )     0.98568543
  WF centre and spread   16  (  1.624894,  0.890898,  3.181979 )     0.98583917
  Sum of centres and spreads ( 12.997799, 22.512848, 24.480893 )    10.05591884
 
      5    -0.423E-02     0.0861647410       10.0559188402       0.10  <-- CONV
        O_D=      0.0023991 O_OD=      0.3019826 O_TOT=     10.0559188 <-- SPRD
 Delta: O_D= -0.2922905E-03 O_OD= -0.3942504E-02 O_TOT= -0.4234795E-02 <-- DLTA
 ------------------------------------------------------------------------------
 Cycle:      6
  WF centre and spread    1  ( -0.000161,  1.876153,  2.625567 )     0.42016874
  WF centre and spread    2  ( -0.000162,  1.874905,  2.589164 )     0.39057900
  WF centre and spread    3  ( -0.000164,  1.877440,  2.589213 )     0.39051305
  WF centre and spread    4  ( -0.000156,  1.857765,  2.605606 )     0.39558149
  WF centre and spread    5  ( -0.000171,  1.894480,  2.605600 )     0.39555790
  WF centre and spread    6  (  1.624886,  0.937953,  0.022693 )     0.42017070
  WF centre and spread    7  (  1.624887,  0.939201, -0.013710 )     0.39057993
  WF centre and spread    8  (  1.624889,  0.936666, -0.013662 )     0.39051398
  WF centre and spread    9  (  1.624881,  0.956341,  0.002731 )     0.39558140
  WF centre and spread   10  (  1.624896,  0.919626,  0.002726 )     0.39555781
  WF centre and spread   11  ( -0.000167,  1.876134,  0.669996 )     1.06395492
  WF centre and spread   12  ( -0.000129,  1.830657,  0.579101 )     0.98548848
  WF centre and spread   13  ( -0.000169,  1.923227,  0.579097 )     0.98561285
  WF centre and spread   14  (  1.624892,  0.937972,  3.272874 )     1.06395776
  WF centre and spread   15  (  1.624854,  0.983449,  3.181977 )     0.98548994
  WF centre and spread   16  (  1.624894,  0.890878,  3.181973 )     0.98561432
  Sum of centres and spreads ( 12.997799, 22.512848, 24.480945 )    10.05492227
 
      6    -0.997E-03     0.0416142068       10.0549222706       0.11  <-- CONV
        O_D=      0.0023822 O_OD=      0.3010030 O_TOT=     10.0549223 <-- SPRD
 Delta: O_D= -0.1698506E-04 O_OD= -0.9795845E-03 O_TOT= -0.9965696E-03 <-- DLTA
 ------------------------------------------------------------------------------
 Cycle:      7
  WF centre and spread    1  ( -0.000161,  1.876153,  2.625588 )     0.42011450
  WF centre and spread    2  ( -0.000162,  1.874903,  2.589154 )     0.39055820
  WF centre and spread    3  ( -0.000164,  1.877441,  2.589195 )     0.39050172
  WF centre and spread    4  ( -0.000156,  1.857759,  2.605610 )     0.39560136
  WF centre and spread    5  ( -0.000171,  1.894488,  2.605604 )     0.39557743
  WF centre and spread    6  (  1.624886,  0.937953,  0.022714 )     0.42011646
  WF centre and spread    7  (  1.624887,  0.939202, -0.013720 )     0.39055913
  WF centre and spread    8  (  1.624889,  0.936665, -0.013680 )     0.39050265
  WF centre and spread    9  (  1.624881,  0.956347,  0.002735 )     0.39560127
  WF centre and spread   10  (  1.624896,  0.919618,  0.002730 )     0.39557734
  WF centre and spread   11  ( -0.000167,  1.876131,  0.670009 )     1.06396706
  WF centre and spread   12  ( -0.000129,  1.830656,  0.579095 )     0.98546098
  WF centre and spread   13  ( -0.000169,  1.923236,  0.579092 )     0.98557633
  WF centre and spread   14  (  1.624892,  0.937975,  3.272887 )     1.06396991
  WF centre and spread   15  (  1.624854,  0.983451,  3.181971 )     0.98546244
  WF centre and spread   16  (  1.624894,  0.890869,  3.181968 )     0.98557779
  Sum of centres and spreads ( 12.997799, 22.512848, 24.480952 )    10.05472457
 
      7    -0.198E-03     0.0206907852       10.0547245681       0.12  <-- CONV
        O_D=      0.0023701 O_OD=      0.3008174 O_TOT=     10.0547246 <-- SPRD
 Delta: O_D= -0.1209472E-04 O_OD= -0.1856079E-03 O_TOT= -0.1977026E-03 <-- DLTA
 ------------------------------------------------------------------------------
 Cycle:      8
  WF centre and spread    1  ( -0.000161,  1.876153,  2.625638 )     0.42003163
  WF centre and spread    2  ( -0.000162,  1.874899,  2.589128 )     0.39052137
  WF centre and spread    3  ( -0.000164,  1.877444,  2.589150 )     0.39048943
  WF centre and spread    4  ( -0.000156,  1.857743,  2.605620 )     0.39565939
  WF centre and spread    5  ( -0.000171,  1.894505,  2.605615 )     0.39563477
  WF centre and spread    6  (  1.624886,  0.937953,  0.022763 )     0.42003360
  WF centre and spread    7  (  1.624887,  0.939207, -0.013747 )     0.39052231
  WF centre and spread    8  (  1.624889,  0.936662, -0.013724 )     0.39049037
  WF centre and spread    9  (  1.624881,  0.956364,  0.002746 )     0.39565930
  WF centre and spread   10  (  1.624896,  0.919601,  0.002740 )     0.39563469
  WF centre and spread   11  ( -0.000167,  1.876122,  0.670032 )     1.06404177
  WF centre and spread   12  ( -0.000129,  1.830650,  0.579079 )     0.98540604
  WF centre and spread   13  ( -0.000170,  1.923260,  0.579078 )     0.98550126
  WF centre and spread   14  (  1.624892,  0.937984,  3.272910 )     1.06404462
  WF centre and spread   15  (  1.624854,  0.983456,  3.181955 )     0.98540750
  WF centre and spread   16  (  1.624894,  0.890845,  3.181953 )     0.98550273
  Sum of centres and spreads ( 12.997799, 22.512848, 24.480936 )    10.05458078
 
      8    -0.144E-03     0.0126352336       10.0545807754       0.14  <-- CONV
        O_D=      0.0023733 O_OD=      0.3006703 O_TOT=     10.0545808 <-- SPRD
 Delta: O_D=  0.3278502E-05 O_OD= -0.1470711E-03 O_TOT= -0.1437926E-03 <-- DLTA
 ------------------------------------------------------------------------------
 Cycle:      9
  WF centre and spread    1  ( -0.000161,  1.876153,  2.625683 )     0.41999451
  WF centre and spread    2  ( -0.000162,  1.874895,  2.589102 )     0.39049045
  WF centre and spread    3  ( -0.000164,  1.877448,  2.589107 )     0.39048360
  WF centre and spread    4  ( -0.000156,  1.857727,  2.605631 )     0.39571328
  WF centre and spread    5  ( -0.000171,  1.894521,  2.605625 )     0.39568820
  WF centre and spread    6  (  1.624886,  0.937953,  0.022809 )     0.41999649
  WF centre and spread    7  (  1.624887,  0.939211, -0.013772 )     0.39049138
  WF centre and spread    8  (  1.624889,  0.936658, -0.013768 )     0.39048453
  WF centre and spread    9  (  1.624881,  0.956379,  0.002756 )     0.39571320
  WF centre and spread   10  (  1.624896,  0.919585,  0.002751 )     0.39568812
  WF centre and spread   11  ( -0.000167,  1.876113,  0.670055 )     1.06410081
  WF centre and spread   12  ( -0.000129,  1.830645,  0.579061 )     0.98534793
  WF centre and spread   13  ( -0.000170,  1.923283,  0.579061 )     0.98542793
  WF centre and spread   14  (  1.624892,  0.937993,  3.272933 )     1.06410367
  WF centre and spread   15  (  1.624854,  0.983462,  3.181937 )     0.98534939
  WF centre and spread   16  (  1.624894,  0.890822,  3.181937 )     0.98542940
  Sum of centres and spreads ( 12.997799, 22.512848, 24.480908 )    10.05450290
 
      9    -0.779E-04     0.0102115174       10.0545028961       0.15  <-- CONV
        O_D=      0.0023719 O_OD=      0.3005939 O_TOT=     10.0545029 <-- SPRD
 Delta: O_D= -0.1490703E-05 O_OD= -0.7638863E-04 O_TOT= -0.7787933E-04 <-- DLTA
 ------------------------------------------------------------------------------
 Cycle:     10
  WF centre and spread    1  ( -0.000161,  1.876153,  2.625718 )     0.42000619
  WF centre and spread    2  ( -0.000162,  1.874891,  2.589083 )     0.39046916
  WF centre and spread    3  ( -0.000164,  1.877452,  2.589073 )     0.39048303
  WF centre and spread    4  ( -0.000156,  1.857715,  2.605640 )     0.39575100
  WF centre and spread    5  ( -0.000171,  1.894534,  2.605634 )     0.39572561
  WF centre and spread    6  (  1.624886,  0.937953,  0.022844 )     0.42000818
  WF centre and spread    7  (  1.624887,  0.939215, -0.013792 )     0.39047009
  WF centre and spread    8  (  1.624889,  0.936654, -0.013801 )     0.39048396
  WF centre and spread    9  (  1.624881,  0.956391,  0.002766 )     0.39575091
  WF centre and spread   10  (  1.624896,  0.919572,  0.002760 )     0.39572553
  WF centre and spread   11  ( -0.000167,  1.876104,  0.670074 )     1.06413217
  WF centre and spread   12  ( -0.000129,  1.830640,  0.579045 )     0.98529412
  WF centre and spread   13  ( -0.000170,  1.923301,  0.579046 )     0.98536729
  WF centre and spread   14  (  1.624892,  0.938002,  3.272952 )     1.06413502
  WF centre and spread   15  (  1.624853,  0.983466,  3.181921 )     0.98529559
  WF centre and spread   16  (  1.624895,  0.890804,  3.181922 )     0.98536876
  Sum of centres and spreads ( 12.997799, 22.512848, 24.480887 )    10.05446662
 
     10    -0.363E-04     0.0066007413       10.0544666239       0.16  <-- CONV
        O_D=      0.0023719 O_OD=      0.3005576 O_TOT=     10.0544666 <-- SPRD
 Delta: O_D=  0.2212827E-07 O_OD= -0.3629437E-04 O_TOT= -0.3627224E-04 <-- DLTA
 ------------------------------------------------------------------------------
 Cycle:     11
  WF centre and spread    1  ( -0.000161,  1.876153,  2.625745 )     0.42001479
  WF centre and spread    2  ( -0.000162,  1.874888,  2.589068 )     0.39045363
  WF centre and spread    3  ( -0.000164,  1.877456,  2.589047 )     0.39048408
  WF centre and spread    4  ( -0.000156,  1.857705,  2.605648 )     0.39577910
  WF centre and spread    5  ( -0.000172,  1.894545,  2.605642 )     0.39575345
  WF centre and spread    6  (  1.624886,  0.937953,  0.022871 )     0.42001679
  WF centre and spread    7  (  1.624887,  0.939218, -0.013807 )     0.39045456
  WF centre and spread    8  (  1.624889,  0.936650, -0.013828 )     0.39048502
  WF centre and spread    9  (  1.624881,  0.956401,  0.002773 )     0.39577902
  WF centre and spread   10  (  1.624896,  0.919561,  0.002768 )     0.39575337
  WF centre and spread   11  ( -0.000167,  1.876094,  0.670086 )     1.06415940
  WF centre and spread   12  ( -0.000129,  1.830637,  0.579034 )     0.98525154
  WF centre and spread   13  ( -0.000170,  1.923316,  0.579036 )     0.98532244
  WF centre and spread   14  (  1.624892,  0.938012,  3.272964 )     1.06416224
  WF centre and spread   15  (  1.624853,  0.983469,  3.181909 )     0.98525300
  WF centre and spread   16  (  1.624895,  0.890789,  3.181911 )     0.98532390
  Sum of centres and spreads ( 12.997799, 22.512848, 24.480868 )    10.05444632
 
     11    -0.203E-04     0.0051898255       10.0544463231       0.17  <-- CONV
        O_D=      0.0023725 O_OD=      0.3005367 O_TOT=     10.0544463 <-- SPRD
 Delta: O_D=  0.6175093E-06 O_OD= -0.2091830E-04 O_TOT= -0.2030079E-04 <-- DLTA
 ------------------------------------------------------------------------------
 Cycle:     12
  WF centre and spread    1  ( -0.000161,  1.876153,  2.625759 )     0.42001798
  WF centre and spread    2  ( -0.000162,  1.874886,  2.589059 )     0.39044633
  WF centre and spread    3  ( -0.000164,  1.877458,  2.589032 )     0.39048602
  WF centre and spread    4  ( -0.000156,  1.857700,  2.605652 )     0.39579491
  WF centre and spread    5  ( -0.000172,  1.894550,  2.605647 )     0.39576905
  WF centre and spread    6  (  1.624886,  0.937953,  0.022885 )     0.42001998
  WF centre and spread    7  (  1.624887,  0.939220, -0.013815 )     0.39044726
  WF centre and spread    8  (  1.624889,  0.936648, -0.013842 )     0.39048696
  WF centre and spread    9  (  1.624881,  0.956406,  0.002778 )     0.39579483
  WF centre and spread   10  (  1.624896,  0.919556,  0.002772 )     0.39576897
  WF centre and spread   11  ( -0.000167,  1.876086,  0.670090 )     1.06417378
  WF centre and spread   12  ( -0.000129,  1.830636,  0.579028 )     0.98522749
  WF centre and spread   13  ( -0.000170,  1.923326,  0.579031 )     0.98529853
  WF centre and spread   14  (  1.624892,  0.938020,  3.272968 )     1.06417663
  WF centre and spread   15  (  1.624853,  0.983471,  3.181904 )     0.98522896
  WF centre and spread   16  (  1.624895,  0.890780,  3.181907 )     0.98529999
  Sum of centres and spreads ( 12.997799, 22.512848, 24.480856 )    10.05443767
 
     12    -0.865E-05     0.0034814180       10.0544376681       0.18  <-- CONV
        O_D=      0.0023719 O_OD=      0.3005287 O_TOT=     10.0544377 <-- SPRD
 Delta: O_D= -0.6042524E-06 O_OD= -0.8050730E-05 O_TOT= -0.8654982E-05 <-- DLTA
 ------------------------------------------------------------------------------
 Cycle:     13
  WF centre and spread    1  ( -0.000161,  1.876153,  2.625760 )     0.42001993
  WF centre and spread    2  ( -0.000162,  1.874886,  2.589059 )     0.39044764
  WF centre and spread    3  ( -0.000164,  1.877458,  2.589031 )     0.39048787
  WF centre and spread    4  ( -0.000156,  1.857699,  2.605653 )     0.39579634
  WF centre and spread    5  ( -0.000172,  1.894551,  2.605647 )     0.39577042
  WF centre and spread    6  (  1.624886,  0.937953,  0.022886 )     0.42002193
  WF centre and spread    7  (  1.624887,  0.939220, -0.013816 )     0.39044857
  WF centre and spread    8  (  1.624889,  0.936648, -0.013843 )     0.39048880
  WF centre and spread    9  (  1.624881,  0.956407,  0.002778 )     0.39579625
  WF centre and spread   10  (  1.624896,  0.919555,  0.002773 )     0.39577033
  WF centre and spread   11  ( -0.000167,  1.876084,  0.670088 )     1.06417273
  WF centre and spread   12  ( -0.000129,  1.830636,  0.579029 )     0.98522352
  WF centre and spread   13  ( -0.000170,  1.923328,  0.579031 )     0.98529478
  WF centre and spread   14  (  1.624892,  0.938022,  3.272967 )     1.06417558
  WF centre and spread   15  (  1.624853,  0.983471,  3.181904 )     0.98522499
  WF centre and spread   16  (  1.624895,  0.890777,  3.181907 )     0.98529624
  Sum of centres and spreads ( 12.997799, 22.512848, 24.480854 )    10.05443592
 
     13    -0.175E-05     0.0018705134       10.0544359193       0.19  <-- CONV
        O_D=      0.0023719 O_OD=      0.3005269 O_TOT=     10.0544359 <-- SPRD
 Delta: O_D=  0.2525472E-07 O_OD= -0.1774012E-05 O_TOT= -0.1748758E-05 <-- DLTA
 ------------------------------------------------------------------------------
 Cycle:     14
  WF centre and spread    1  ( -0.000161,  1.876153,  2.625763 )     0.42002499
  WF centre and spread    2  ( -0.000162,  1.874886,  2.589058 )     0.39045195
  WF centre and spread    3  ( -0.000164,  1.877458,  2.589029 )     0.39049389
  WF centre and spread    4  ( -0.000156,  1.857698,  2.605653 )     0.39580044
  WF centre and spread    5  ( -0.000172,  1.894552,  2.605648 )     0.39577433
  WF centre and spread    6  (  1.624886,  0.937953,  0.022889 )     0.42002699
  WF centre and spread    7  (  1.624887,  0.939220, -0.013817 )     0.39045288
  WF centre and spread    8  (  1.624889,  0.936648, -0.013846 )     0.39049483
  WF centre and spread    9  (  1.624881,  0.956408,  0.002779 )     0.39580035
  WF centre and spread   10  (  1.624896,  0.919554,  0.002774 )     0.39577425
  WF centre and spread   11  ( -0.000167,  1.876075,  0.670084 )     1.06417055
  WF centre and spread   12  ( -0.000128,  1.830636,  0.579028 )     0.98521215
  WF centre and spread   13  ( -0.000170,  1.923337,  0.579032 )     0.98528393
  WF centre and spread   14  (  1.624892,  0.938031,  3.272962 )     1.06417339
  WF centre and spread   15  (  1.624853,  0.983471,  3.181904 )     0.98521361
  WF centre and spread   16  (  1.624895,  0.890769,  3.181907 )     0.98528540
  Sum of centres and spreads ( 12.997799, 22.512848, 24.480849 )    10.05443395
 
     14    -0.197E-05     0.0013464114       10.0544339466       0.20  <-- CONV
        O_D=      0.0023722 O_OD=      0.3005246 O_TOT=     10.0544339 <-- SPRD
 Delta: O_D=  0.3144261E-06 O_OD= -0.2287178E-05 O_TOT= -0.1972752E-05 <-- DLTA
 ------------------------------------------------------------------------------
 Cycle:     15
  WF centre and spread    1  ( -0.000161,  1.876152,  2.625769 )     0.42003196
  WF centre and spread    2  ( -0.000162,  1.874885,  2.589057 )     0.39045983
  WF centre and spread    3  ( -0.000164,  1.877459,  2.589025 )     0.39050491
  WF centre and spread    4  ( -0.000156,  1.857696,  2.605655 )     0.39580611
  WF centre and spread    5  ( -0.000172,  1.894553,  2.605649 )     0.39577968
  WF centre and spread    6  (  1.624886,  0.937954,  0.022895 )     0.42003396
  WF centre and spread    7  (  1.624887,  0.939221, -0.013818 )     0.39046076
  WF centre and spread    8  (  1.624889,  0.936647, -0.013849 )     0.39050584
  WF centre and spread    9  (  1.624881,  0.956410,  0.002780 )     0.39580603
  WF centre and spread   10  (  1.624896,  0.919553,  0.002775 )     0.39577960
  WF centre and spread   11  ( -0.000167,  1.876057,  0.670079 )     1.06416775
  WF centre and spread   12  ( -0.000128,  1.830635,  0.579028 )     0.98519443
  WF centre and spread   13  ( -0.000170,  1.923355,  0.579031 )     0.98526637
  WF centre and spread   14  (  1.624892,  0.938049,  3.272958 )     1.06417060
  WF centre and spread   15  (  1.624853,  0.983471,  3.181903 )     0.98519589
  WF centre and spread   16  (  1.624895,  0.890750,  3.181907 )     0.98526783
  Sum of centres and spreads ( 12.997799, 22.512848, 24.480844 )    10.05443156
 
     15    -0.239E-05     0.0013484496       10.0544315572       0.21  <-- CONV
        O_D=      0.0023728 O_OD=      0.3005217 O_TOT=     10.0544316 <-- SPRD
 Delta: O_D=  0.5451775E-06 O_OD= -0.2934519E-05 O_TOT= -0.2389342E-05 <-- DLTA
 ------------------------------------------------------------------------------
 Cycle:     16
  WF centre and spread    1  ( -0.000161,  1.876152,  2.625784 )     0.42004991
  WF centre and spread    2  ( -0.000162,  1.874884,  2.589054 )     0.39047649
  WF centre and spread    3  ( -0.000164,  1.877462,  2.589018 )     0.39052852
  WF centre and spread    4  ( -0.000156,  1.857692,  2.605657 )     0.39581584
  WF centre and spread    5  ( -0.000172,  1.894557,  2.605651 )     0.39578866
  WF centre and spread    6  (  1.624886,  0.937954,  0.022909 )     0.42005191
  WF centre and spread    7  (  1.624887,  0.939222, -0.013820 )     0.39047742
  WF centre and spread    8  (  1.624889,  0.936644, -0.013856 )     0.39052945
  WF centre and spread    9  (  1.624881,  0.956414,  0.002783 )     0.39581575
  WF centre and spread   10  (  1.624896,  0.919549,  0.002777 )     0.39578858
  WF centre and spread   11  ( -0.000167,  1.876010,  0.670076 )     1.06416019
  WF centre and spread   12  ( -0.000128,  1.830634,  0.579025 )     0.98515943
  WF centre and spread   13  ( -0.000170,  1.923403,  0.579030 )     0.98522949
  WF centre and spread   14  (  1.624892,  0.938096,  3.272954 )     1.06416304
  WF centre and spread   15  (  1.624853,  0.983472,  3.181901 )     0.98516090
  WF centre and spread   16  (  1.624895,  0.890702,  3.181906 )     0.98523096
  Sum of centres and spreads ( 12.997799, 22.512848, 24.480849 )    10.05442654
 
     16    -0.502E-05     0.0017981346       10.0544265370       0.22  <-- CONV
        O_D=      0.0023734 O_OD=      0.3005160 O_TOT=     10.0544265 <-- SPRD
 Delta: O_D=  0.6457605E-06 O_OD= -0.5665967E-05 O_TOT= -0.5020207E-05 <-- DLTA
 ------------------------------------------------------------------------------
 Cycle:     17
  WF centre and spread    1  ( -0.000161,  1.876152,  2.625811 )     0.42008710
  WF centre and spread    2  ( -0.000162,  1.874882,  2.589050 )     0.39050378
  WF centre and spread    3  ( -0.000164,  1.877466,  2.589005 )     0.39056903
  WF centre and spread    4  ( -0.000156,  1.857683,  2.605661 )     0.39583135
  WF centre and spread    5  ( -0.000172,  1.894565,  2.605655 )     0.39580255
  WF centre and spread    6  (  1.624886,  0.937954,  0.022937 )     0.42008910
  WF centre and spread    7  (  1.624887,  0.939224, -0.013825 )     0.39050471
  WF centre and spread    8  (  1.624889,  0.936640, -0.013870 )     0.39056996
  WF centre and spread    9  (  1.624880,  0.956423,  0.002787 )     0.39583126
  WF centre and spread   10  (  1.624897,  0.919541,  0.002781 )     0.39580246
  WF centre and spread   11  ( -0.000168,  1.875898,  0.670075 )     1.06414650
  WF centre and spread   12  ( -0.000127,  1.830632,  0.579017 )     0.98510118
  WF centre and spread   13  ( -0.000171,  1.923522,  0.579025 )     0.98516151
  WF centre and spread   14  (  1.624893,  0.938208,  3.272953 )     1.06414934
  WF centre and spread   15  (  1.624852,  0.983474,  3.181893 )     0.98510265
  WF centre and spread   16  (  1.624895,  0.890583,  3.181901 )     0.98516298
  Sum of centres and spreads ( 12.997799, 22.512848, 24.480857 )    10.05441546
 
     17    -0.111E-04     0.0025136047       10.0544154576       0.23  <-- CONV
        O_D=      0.0023747 O_OD=      0.3005037 O_TOT=     10.0544155 <-- SPRD
 Delta: O_D=  0.1239826E-05 O_OD= -0.1231927E-04 O_TOT= -0.1107945E-04 <-- DLTA
 ------------------------------------------------------------------------------
 Cycle:     18
  WF centre and spread    1  ( -0.000161,  1.876151,  2.625847 )     0.42012177
  WF centre and spread    2  ( -0.000162,  1.874880,  2.589043 )     0.39053440
  WF centre and spread    3  ( -0.000164,  1.877472,  2.588986 )     0.39061784
  WF centre and spread    4  ( -0.000156,  1.857671,  2.605667 )     0.39585255
  WF centre and spread    5  ( -0.000172,  1.894576,  2.605660 )     0.39582114
  WF centre and spread    6  (  1.624886,  0.937955,  0.022973 )     0.42012377
  WF centre and spread    7  (  1.624887,  0.939226, -0.013831 )     0.39053533
  WF centre and spread    8  (  1.624889,  0.936634, -0.013889 )     0.39061877
  WF centre and spread    9  (  1.624880,  0.956435,  0.002792 )     0.39585246
  WF centre and spread   10  (  1.624897,  0.919530,  0.002786 )     0.39582106
  WF centre and spread   11  ( -0.000168,  1.875688,  0.670074 )     1.06414441
  WF centre and spread   12  ( -0.000126,  1.830629,  0.579003 )     0.98503201
  WF centre and spread   13  ( -0.000172,  1.923748,  0.579019 )     0.98506888
  WF centre and spread   14  (  1.624893,  0.938418,  3.272953 )     1.06414726
  WF centre and spread   15  (  1.624851,  0.983477,  3.181879 )     0.98503348
  WF centre and spread   16  (  1.624896,  0.890357,  3.181894 )     0.98507035
  Sum of centres and spreads ( 12.997799, 22.512848, 24.480856 )    10.05439549
 
     18    -0.200E-04     0.0037513542       10.0543954860       0.24  <-- CONV
        O_D=      0.0023763 O_OD=      0.3004821 O_TOT=     10.0543955 <-- SPRD
 Delta: O_D=  0.1625484E-05 O_OD= -0.2159713E-04 O_TOT= -0.1997164E-04 <-- DLTA
 ------------------------------------------------------------------------------
 Cycle:     19
  WF centre and spread    1  ( -0.000161,  1.876151,  2.625841 )     0.42010777
  WF centre and spread    2  ( -0.000162,  1.874880,  2.589044 )     0.39052650
  WF centre and spread    3  ( -0.000164,  1.877471,  2.588989 )     0.39060637
  WF centre and spread    4  ( -0.000156,  1.857673,  2.605666 )     0.39584882
  WF centre and spread    5  ( -0.000172,  1.894574,  2.605659 )     0.39581776
  WF centre and spread    6  (  1.624886,  0.937955,  0.022967 )     0.42010977
  WF centre and spread    7  (  1.624887,  0.939226, -0.013831 )     0.39052743
  WF centre and spread    8  (  1.624889,  0.936635, -0.013885 )     0.39060730
  WF centre and spread    9  (  1.624880,  0.956433,  0.002791 )     0.39584873
  WF centre and spread   10  (  1.624897,  0.919532,  0.002785 )     0.39581768
  WF centre and spread   11  ( -0.000168,  1.875686,  0.670077 )     1.06414852
  WF centre and spread   12  ( -0.000126,  1.830630,  0.579005 )     0.98504821
  WF centre and spread   13  ( -0.000172,  1.923751,  0.579020 )     0.98508286
  WF centre and spread   14  (  1.624893,  0.938420,  3.272955 )     1.06415137
  WF centre and spread   15  (  1.624851,  0.983477,  3.181881 )     0.98504968
  WF centre and spread   16  (  1.624896,  0.890354,  3.181896 )     0.98508434
  Sum of centres and spreads ( 12.997799, 22.512848, 24.480860 )    10.05438310
 
     19    -0.124E-04     0.0052781136       10.0543830987       0.24  <-- CONV
        O_D=      0.0023758 O_OD=      0.3004702 O_TOT=     10.0543831 <-- SPRD
 Delta: O_D= -0.4640231E-06 O_OD= -0.1192327E-04 O_TOT= -0.1238729E-04 <-- DLTA
 ------------------------------------------------------------------------------
 Cycle:     20
  WF centre and spread    1  ( -0.000161,  1.876151,  2.625825 )     0.42007952
  WF centre and spread    2  ( -0.000162,  1.874882,  2.589046 )     0.39050668
  WF centre and spread    3  ( -0.000164,  1.877468,  2.588998 )     0.39057733
  WF centre and spread    4  ( -0.000156,  1.857679,  2.605663 )     0.39583879
  WF centre and spread    5  ( -0.000172,  1.894568,  2.605657 )     0.39580868
  WF centre and spread    6  (  1.624886,  0.937955,  0.022951 )     0.42008153
  WF centre and spread    7  (  1.624887,  0.939224, -0.013828 )     0.39050761
  WF centre and spread    8  (  1.624889,  0.936638, -0.013877 )     0.39057826
  WF centre and spread    9  (  1.624880,  0.956427,  0.002789 )     0.39583871
  WF centre and spread   10  (  1.624897,  0.919538,  0.002782 )     0.39580859
  WF centre and spread   11  ( -0.000168,  1.875680,  0.670080 )     1.06415901
  WF centre and spread   12  ( -0.000126,  1.830631,  0.579009 )     0.98509111
  WF centre and spread   13  ( -0.000172,  1.923759,  0.579023 )     0.98512108
  WF centre and spread   14  (  1.624893,  0.938426,  3.272958 )     1.06416186
  WF centre and spread   15  (  1.624851,  0.983475,  3.181885 )     0.98509258
  WF centre and spread   16  (  1.624896,  0.890346,  3.181899 )     0.98512255
  Sum of centres and spreads ( 12.997799, 22.512848, 24.480859 )    10.05437388
 
     20    -0.922E-05     0.0031720110       10.0543738814       0.25  <-- CONV
        O_D=      0.0023758 O_OD=      0.3004609 O_TOT=     10.0543739 <-- SPRD
 Delta: O_D=  0.2420404E-07 O_OD= -0.9241513E-05 O_TOT= -0.9217309E-05 <-- DLTA
 ------------------------------------------------------------------------------
 Cycle:     21
  WF centre and spread    1  ( -0.000161,  1.876152,  2.625803 )     0.42005692
  WF centre and spread    2  ( -0.000162,  1.874884,  2.589050 )     0.39048326
  WF centre and spread    3  ( -0.000164,  1.877465,  2.589009 )     0.39054284
  WF centre and spread    4  ( -0.000156,  1.857686,  2.605660 )     0.39582424
  WF centre and spread    5  ( -0.000172,  1.894562,  2.605654 )     0.39579537
  WF centre and spread    6  (  1.624886,  0.937954,  0.022929 )     0.42005892
  WF centre and spread    7  (  1.624887,  0.939222, -0.013825 )     0.39048420
  WF centre and spread    8  (  1.624889,  0.936641, -0.013866 )     0.39054378
  WF centre and spread    9  (  1.624880,  0.956420,  0.002785 )     0.39582415
  WF centre and spread   10  (  1.624897,  0.919544,  0.002779 )     0.39579529
  WF centre and spread   11  ( -0.000168,  1.875672,  0.670083 )     1.06416517
  WF centre and spread   12  ( -0.000126,  1.830633,  0.579014 )     0.98514208
  WF centre and spread   13  ( -0.000172,  1.923769,  0.579026 )     0.98516916
  WF centre and spread   14  (  1.624893,  0.938434,  3.272961 )     1.06416802
  WF centre and spread   15  (  1.624851,  0.983473,  3.181890 )     0.98514354
  WF centre and spread   16  (  1.624896,  0.890336,  3.181902 )     0.98517062
  Sum of centres and spreads ( 12.997799, 22.512848, 24.480853 )    10.05436754
 
     21    -0.634E-05     0.0025735211       10.0543675428       0.26  <-- CONV
        O_D=      0.0023757 O_OD=      0.3004547 O_TOT=     10.0543675 <-- SPRD
 Delta: O_D= -0.1070625E-06 O_OD= -0.6231530E-05 O_TOT= -0.6338593E-05 <-- DLTA
 ------------------------------------------------------------------------------
 Cycle:     22
  WF centre and spread    1  ( -0.000161,  1.876152,  2.625784 )     0.42004253
  WF centre and spread    2  ( -0.000162,  1.874886,  2.589053 )     0.39046425
  WF centre and spread    3  ( -0.000164,  1.877462,  2.589019 )     0.39051452
  WF centre and spread    4  ( -0.000156,  1.857692,  2.605657 )     0.39581005
  WF centre and spread    5  ( -0.000172,  1.894556,  2.605651 )     0.39578233
  WF centre and spread    6  (  1.624886,  0.937954,  0.022910 )     0.42004453
  WF centre and spread    7  (  1.624887,  0.939220, -0.013821 )     0.39046518
  WF centre and spread    8  (  1.624889,  0.936644, -0.013856 )     0.39051546
  WF centre and spread    9  (  1.624880,  0.956414,  0.002783 )     0.39580996
  WF centre and spread   10  (  1.624897,  0.919550,  0.002777 )     0.39578224
  WF centre and spread   11  ( -0.000168,  1.875662,  0.670085 )     1.06416708
  WF centre and spread   12  ( -0.000126,  1.830635,  0.579019 )     0.98518423
  WF centre and spread   13  ( -0.000172,  1.923778,  0.579029 )     0.98521198
  WF centre and spread   14  (  1.624893,  0.938444,  3.272963 )     1.06416993
  WF centre and spread   15  (  1.624850,  0.983472,  3.181894 )     0.98518570
  WF centre and spread   16  (  1.624896,  0.890328,  3.181905 )     0.98521345
  Sum of centres and spreads ( 12.997799, 22.512848, 24.480851 )    10.05436340
 
     22    -0.414E-05     0.0022681897       10.0543634025       0.27  <-- CONV
        O_D=      0.0023752 O_OD=      0.3004511 O_TOT=     10.0543634 <-- SPRD
 Delta: O_D= -0.5762404E-06 O_OD= -0.3563985E-05 O_TOT= -0.4140225E-05 <-- DLTA
 ------------------------------------------------------------------------------
 Cycle:     23
  WF centre and spread    1  ( -0.000161,  1.876152,  2.625770 )     0.42002994
  WF centre and spread    2  ( -0.000162,  1.874887,  2.589055 )     0.39045162
  WF centre and spread    3  ( -0.000164,  1.877461,  2.589026 )     0.39049540
  WF centre and spread    4  ( -0.000156,  1.857696,  2.605655 )     0.39579929
  WF centre and spread    5  ( -0.000172,  1.894551,  2.605650 )     0.39577247
  WF centre and spread    6  (  1.624886,  0.937954,  0.022896 )     0.42003194
  WF centre and spread    7  (  1.624887,  0.939219, -0.013819 )     0.39045256
  WF centre and spread    8  (  1.624889,  0.936645, -0.013849 )     0.39049633
  WF centre and spread    9  (  1.624880,  0.956410,  0.002781 )     0.39579920
  WF centre and spread   10  (  1.624897,  0.919554,  0.002775 )     0.39577239
  WF centre and spread   11  ( -0.000168,  1.875652,  0.670084 )     1.06416886
  WF centre and spread   12  ( -0.000126,  1.830636,  0.579023 )     0.98521329
  WF centre and spread   13  ( -0.000172,  1.923785,  0.579033 )     0.98524481
  WF centre and spread   14  (  1.624893,  0.938454,  3.272962 )     1.06417171
  WF centre and spread   15  (  1.624850,  0.983471,  3.181899 )     0.98521476
  WF centre and spread   16  (  1.624896,  0.890320,  3.181909 )     0.98524627
  Sum of centres and spreads ( 12.997799, 22.512848, 24.480850 )    10.05436084
 
     23    -0.256E-05     0.0016917645       10.0543608391       0.28  <-- CONV
        O_D=      0.0023746 O_OD=      0.3004491 O_TOT=     10.0543608 <-- SPRD
 Delta: O_D= -0.5164786E-06 O_OD= -0.2046976E-05 O_TOT= -0.2563455E-05 <-- DLTA
 ------------------------------------------------------------------------------
 Cycle:     24
  WF centre and spread    1  ( -0.000161,  1.876153,  2.625763 )     0.42002391
  WF centre and spread    2  ( -0.000162,  1.874887,  2.589056 )     0.39044655
  WF centre and spread    3  ( -0.000164,  1.877460,  2.589029 )     0.39048725
  WF centre and spread    4  ( -0.000156,  1.857698,  2.605655 )     0.39579449
  WF centre and spread    5  ( -0.000172,  1.894550,  2.605649 )     0.39576818
  WF centre and spread    6  (  1.624886,  0.937953,  0.022889 )     0.42002591
  WF centre and spread    7  (  1.624887,  0.939219, -0.013818 )     0.39044748
  WF centre and spread    8  (  1.624889,  0.936646, -0.013845 )     0.39048819
  WF centre and spread    9  (  1.624880,  0.956408,  0.002780 )     0.39579440
  WF centre and spread   10  (  1.624897,  0.919556,  0.002775 )     0.39576809
  WF centre and spread   11  ( -0.000168,  1.875643,  0.670081 )     1.06416850
  WF centre and spread   12  ( -0.000125,  1.830637,  0.579027 )     0.98522547
  WF centre and spread   13  ( -0.000172,  1.923792,  0.579036 )     0.98526070
  WF centre and spread   14  (  1.624893,  0.938463,  3.272959 )     1.06417134
  WF centre and spread   15  (  1.624850,  0.983470,  3.181902 )     0.98522693
  WF centre and spread   16  (  1.624896,  0.890314,  3.181912 )     0.98526216
  Sum of centres and spreads ( 12.997799, 22.512848, 24.480849 )    10.05435955
 
     24    -0.129E-05     0.0012999404       10.0543595496       0.29  <-- CONV
        O_D=      0.0023744 O_OD=      0.3004481 O_TOT=     10.0543595 <-- SPRD
 Delta: O_D= -0.2919093E-06 O_OD= -0.9975411E-06 O_TOT= -0.1289450E-05 <-- DLTA
 ------------------------------------------------------------------------------
 Cycle:     25
  WF centre and spread    1  ( -0.000161,  1.876153,  2.625764 )     0.42002535
  WF centre and spread    2  ( -0.000162,  1.874887,  2.589056 )     0.39044832
  WF centre and spread    3  ( -0.000164,  1.877460,  2.589028 )     0.39048946
  WF centre and spread    4  ( -0.000156,  1.857698,  2.605655 )     0.39579561
  WF centre and spread    5  ( -0.000172,  1.894550,  2.605649 )     0.39576929
  WF centre and spread    6  (  1.624886,  0.937953,  0.022889 )     0.42002735
  WF centre and spread    7  (  1.624887,  0.939219, -0.013819 )     0.39044926
  WF centre and spread    8  (  1.624889,  0.936646, -0.013846 )     0.39049039
  WF centre and spread    9  (  1.624880,  0.956408,  0.002781 )     0.39579552
  WF centre and spread   10  (  1.624897,  0.919556,  0.002775 )     0.39576920
  WF centre and spread   11  ( -0.000168,  1.875641,  0.670080 )     1.06416772
  WF centre and spread   12  ( -0.000125,  1.830636,  0.579027 )     0.98522159
  WF centre and spread   13  ( -0.000172,  1.923794,  0.579036 )     0.98525726
  WF centre and spread   14  (  1.624893,  0.938465,  3.272959 )     1.06417057
  WF centre and spread   15  (  1.624850,  0.983470,  3.181902 )     0.98522305
  WF centre and spread   16  (  1.624896,  0.890311,  3.181912 )     0.98525873
  Sum of centres and spreads ( 12.997799, 22.512848, 24.480849 )    10.05435867
 
     25    -0.882E-06     0.0012727949       10.0543586677       0.30  <-- CONV
        O_D=      0.0023744 O_OD=      0.3004471 O_TOT=     10.0543587 <-- SPRD
 Delta: O_D=  0.8055512E-07 O_OD= -0.9624465E-06 O_TOT= -0.8818914E-06 <-- DLTA
 ------------------------------------------------------------------------------
 Cycle:     26
  WF centre and spread    1  ( -0.000161,  1.876152,  2.625767 )     0.42002988
  WF centre and spread    2  ( -0.000162,  1.874886,  2.589055 )     0.39045593
  WF centre and spread    3  ( -0.000164,  1.877461,  2.589026 )     0.39049894
  WF centre and spread    4  ( -0.000156,  1.857696,  2.605656 )     0.39580004
  WF centre and spread    5  ( -0.000172,  1.894552,  2.605650 )     0.39577366
  WF centre and spread    6  (  1.624886,  0.937954,  0.022893 )     0.42003188
  WF centre and spread    7  (  1.624887,  0.939219, -0.013820 )     0.39045686
  WF centre and spread    8  (  1.624889,  0.936645, -0.013849 )     0.39049988
  WF centre and spread    9  (  1.624880,  0.956410,  0.002781 )     0.39579996
  WF centre and spread   10  (  1.624897,  0.919554,  0.002776 )     0.39577358
  WF centre and spread   11  ( -0.000168,  1.875629,  0.670076 )     1.06416540
  WF centre and spread   12  ( -0.000125,  1.830636,  0.579027 )     0.98520628
  WF centre and spread   13  ( -0.000172,  1.923806,  0.579037 )     0.98524364
  WF centre and spread   14  (  1.624893,  0.938477,  3.272955 )     1.06416825
  WF centre and spread   15  (  1.624850,  0.983471,  3.181903 )     0.98520775
  WF centre and spread   16  (  1.624897,  0.890300,  3.181913 )     0.98524511
  Sum of centres and spreads ( 12.997799, 22.512848, 24.480847 )    10.05435704
 
     26    -0.162E-05     0.0010591149       10.0543570429       0.31  <-- CONV
        O_D=      0.0023748 O_OD=      0.3004452 O_TOT=     10.0543570 <-- SPRD
 Delta: O_D=  0.3499526E-06 O_OD= -0.1974745E-05 O_TOT= -0.1624793E-05 <-- DLTA
 ------------------------------------------------------------------------------
 Cycle:     27
  WF centre and spread    1  ( -0.000161,  1.876152,  2.625774 )     0.42003546
  WF centre and spread    2  ( -0.000162,  1.874886,  2.589053 )     0.39047166
  WF centre and spread    3  ( -0.000164,  1.877462,  2.589021 )     0.39051879
  WF centre and spread    4  ( -0.000156,  1.857692,  2.605657 )     0.39580774
  WF centre and spread    5  ( -0.000172,  1.894555,  2.605652 )     0.39578120
  WF centre and spread    6  (  1.624886,  0.937954,  0.022900 )     0.42003746
  WF centre and spread    7  (  1.624887,  0.939220, -0.013821 )     0.39047259
  WF centre and spread    8  (  1.624889,  0.936644, -0.013854 )     0.39051973
  WF centre and spread    9  (  1.624880,  0.956414,  0.002783 )     0.39580765
  WF centre and spread   10  (  1.624897,  0.919551,  0.002778 )     0.39578112
  WF centre and spread   11  ( -0.000168,  1.875602,  0.670071 )     1.06416222
  WF centre and spread   12  ( -0.000125,  1.830634,  0.579028 )     0.98517772
  WF centre and spread   13  ( -0.000172,  1.923833,  0.579039 )     0.98521757
  WF centre and spread   14  (  1.624893,  0.938504,  3.272949 )     1.06416507
  WF centre and spread   15  (  1.624850,  0.983472,  3.181903 )     0.98517918
  WF centre and spread   16  (  1.624897,  0.890272,  3.181915 )     0.98521904
  Sum of centres and spreads ( 12.997799, 22.512848, 24.480848 )    10.05435419
 
     27    -0.285E-05     0.0013533387       10.0543541949       0.32  <-- CONV
        O_D=      0.0023754 O_OD=      0.3004417 O_TOT=     10.0543542 <-- SPRD
 Delta: O_D=  0.6461866E-06 O_OD= -0.3494241E-05 O_TOT= -0.2848054E-05 <-- DLTA
 ------------------------------------------------------------------------------
 Cycle:     28
  WF centre and spread    1  ( -0.000161,  1.876152,  2.625789 )     0.42004808
  WF centre and spread    2  ( -0.000162,  1.874884,  2.589050 )     0.39050011
  WF centre and spread    3  ( -0.000164,  1.877465,  2.589012 )     0.39055517
  WF centre and spread    4  ( -0.000156,  1.857686,  2.605660 )     0.39581964
  WF centre and spread    5  ( -0.000172,  1.894561,  2.605655 )     0.39579274
  WF centre and spread    6  (  1.624886,  0.937954,  0.022915 )     0.42005008
  WF centre and spread    7  (  1.624887,  0.939222, -0.013824 )     0.39050104
  WF centre and spread    8  (  1.624889,  0.936641, -0.013862 )     0.39055610
  WF centre and spread    9  (  1.624880,  0.956420,  0.002786 )     0.39581956
  WF centre and spread   10  (  1.624897,  0.919545,  0.002780 )     0.39579265
  WF centre and spread   11  ( -0.000169,  1.875540,  0.670066 )     1.06415569
  WF centre and spread   12  ( -0.000125,  1.830632,  0.579027 )     0.98512821
  WF centre and spread   13  ( -0.000172,  1.923897,  0.579042 )     0.98516988
  WF centre and spread   14  (  1.624893,  0.938566,  3.272944 )     1.06415854
  WF centre and spread   15  (  1.624850,  0.983475,  3.181903 )     0.98512968
  WF centre and spread   16  (  1.624897,  0.890208,  3.181917 )     0.98517135
  Sum of centres and spreads ( 12.997799, 22.512848, 24.480859 )    10.05434853
 
     28    -0.567E-05     0.0019943730       10.0543485296       0.33  <-- CONV
        O_D=      0.0023758 O_OD=      0.3004356 O_TOT=     10.0543485 <-- SPRD
 Delta: O_D=  0.3738990E-06 O_OD= -0.6039239E-05 O_TOT= -0.5665340E-05 <-- DLTA
 ------------------------------------------------------------------------------
 Cycle:     29
  WF centre and spread    1  ( -0.000161,  1.876152,  2.625805 )     0.42006988
  WF centre and spread    2  ( -0.000162,  1.874882,  2.589047 )     0.39052742
  WF centre and spread    3  ( -0.000164,  1.877469,  2.589003 )     0.39059112
  WF centre and spread    4  ( -0.000155,  1.857679,  2.605663 )     0.39583025
  WF centre and spread    5  ( -0.000172,  1.894567,  2.605658 )     0.39580275
  WF centre and spread    6  (  1.624886,  0.937954,  0.022931 )     0.42007188
  WF centre and spread    7  (  1.624887,  0.939224, -0.013828 )     0.39052836
  WF centre and spread    8  (  1.624889,  0.936637, -0.013871 )     0.39059206
  WF centre and spread    9  (  1.624880,  0.956427,  0.002789 )     0.39583017
  WF centre and spread   10  (  1.624897,  0.919539,  0.002783 )     0.39580266
  WF centre and spread   11  ( -0.000169,  1.875449,  0.670064 )     1.06414665
  WF centre and spread   12  ( -0.000124,  1.830629,  0.579024 )     0.98508021
  WF centre and spread   13  ( -0.000173,  1.923996,  0.579042 )     0.98511727
  WF centre and spread   14  (  1.624894,  0.938657,  3.272942 )     1.06414950
  WF centre and spread   15  (  1.624849,  0.983477,  3.181900 )     0.98508168
  WF centre and spread   16  (  1.624897,  0.890109,  3.181918 )     0.98511874
  Sum of centres and spreads ( 12.997799, 22.512848, 24.480869 )    10.05434059
 
     29    -0.793E-05     0.0024354821       10.0543405947       0.34  <-- CONV
        O_D=      0.0023761 O_OD=      0.3004274 O_TOT=     10.0543406 <-- SPRD
 Delta: O_D=  0.2616804E-06 O_OD= -0.8196516E-05 O_TOT= -0.7934836E-05 <-- DLTA
 ------------------------------------------------------------------------------
 Cycle:     30
  WF centre and spread    1  ( -0.000161,  1.876151,  2.625815 )     0.42008378
  WF centre and spread    2  ( -0.000162,  1.874881,  2.589044 )     0.39054160
  WF centre and spread    3  ( -0.000164,  1.877471,  2.588997 )     0.39061127
  WF centre and spread    4  ( -0.000155,  1.857674,  2.605665 )     0.39583739
  WF centre and spread    5  ( -0.000172,  1.894572,  2.605659 )     0.39580915
  WF centre and spread    6  (  1.624886,  0.937955,  0.022941 )     0.42008578
  WF centre and spread    7  (  1.624887,  0.939224, -0.013830 )     0.39054253
  WF centre and spread    8  (  1.624889,  0.936635, -0.013878 )     0.39061221
  WF centre and spread    9  (  1.624880,  0.956432,  0.002791 )     0.39583731
  WF centre and spread   10  (  1.624897,  0.919534,  0.002785 )     0.39580907
  WF centre and spread   11  ( -0.000169,  1.875334,  0.670064 )     1.06414494
  WF centre and spread   12  ( -0.000123,  1.830627,  0.579019 )     0.98505442
  WF centre and spread   13  ( -0.000173,  1.924124,  0.579042 )     0.98507823
  WF centre and spread   14  (  1.624894,  0.938772,  3.272942 )     1.06414779
  WF centre and spread   15  (  1.624848,  0.983479,  3.181895 )     0.98505589
  WF centre and spread   16  (  1.624898,  0.889982,  3.181918 )     0.98507970
  Sum of centres and spreads ( 12.997799, 22.512848, 24.480868 )    10.05433104
 
     30    -0.955E-05     0.0028718992       10.0543310404       0.34  <-- CONV
        O_D=      0.0023768 O_OD=      0.3004172 O_TOT=     10.0543310 <-- SPRD
 Delta: O_D=  0.6909417E-06 O_OD= -0.1024529E-04 O_TOT= -0.9554346E-05 <-- DLTA
 ------------------------------------------------------------------------------
 Cycle:     31
  WF centre and spread    1  ( -0.000161,  1.876151,  2.625812 )     0.42007492
  WF centre and spread    2  ( -0.000162,  1.874882,  2.589045 )     0.39053298
  WF centre and spread    3  ( -0.000164,  1.877470,  2.588999 )     0.39060022
  WF centre and spread    4  ( -0.000155,  1.857675,  2.605664 )     0.39583454
  WF centre and spread    5  ( -0.000172,  1.894570,  2.605659 )     0.39580637
  WF centre and spread    6  (  1.624886,  0.937955,  0.022937 )     0.42007692
  WF centre and spread    7  (  1.624887,  0.939224, -0.013830 )     0.39053391
  WF centre and spread    8  (  1.624889,  0.936636, -0.013876 )     0.39060116
  WF centre and spread    9  (  1.624880,  0.956431,  0.002790 )     0.39583445
  WF centre and spread   10  (  1.624897,  0.919536,  0.002784 )     0.39580629
  WF centre and spread   11  ( -0.000169,  1.875332,  0.670066 )     1.06414744
  WF centre and spread   12  ( -0.000123,  1.830628,  0.579019 )     0.98506948
  WF centre and spread   13  ( -0.000173,  1.924126,  0.579043 )     0.98509098
  WF centre and spread   14  (  1.624894,  0.938774,  3.272944 )     1.06415029
  WF centre and spread   15  (  1.624848,  0.983479,  3.181895 )     0.98507095
  WF centre and spread   16  (  1.624898,  0.889980,  3.181918 )     0.98509245
  Sum of centres and spreads ( 12.997799, 22.512848, 24.480869 )    10.05432335
 
     31    -0.769E-05     0.0040666988       10.0543233532       0.35  <-- CONV
        O_D=      0.0023767 O_OD=      0.3004096 O_TOT=     10.0543234 <-- SPRD
 Delta: O_D= -0.9922802E-07 O_OD= -0.7587925E-05 O_TOT= -0.7687153E-05 <-- DLTA
 ------------------------------------------------------------------------------
 Cycle:     32
  WF centre and spread    1  ( -0.000161,  1.876152,  2.625801 )     0.42005729
  WF centre and spread    2  ( -0.000162,  1.874884,  2.589047 )     0.39050954
  WF centre and spread    3  ( -0.000164,  1.877468,  2.589005 )     0.39057013
  WF centre and spread    4  ( -0.000155,  1.857681,  2.605662 )     0.39582618
  WF centre and spread    5  ( -0.000172,  1.894565,  2.605657 )     0.39579825
  WF centre and spread    6  (  1.624886,  0.937954,  0.022927 )     0.42005929
  WF centre and spread    7  (  1.624887,  0.939222, -0.013828 )     0.39051047
  WF centre and spread    8  (  1.624889,  0.936638, -0.013869 )     0.39057107
  WF centre and spread    9  (  1.624880,  0.956425,  0.002788 )     0.39582609
  WF centre and spread   10  (  1.624897,  0.919541,  0.002782 )     0.39579816
  WF centre and spread   11  ( -0.000169,  1.875326,  0.670067 )     1.06415368
  WF centre and spread   12  ( -0.000123,  1.830630,  0.579020 )     0.98511127
  WF centre and spread   13  ( -0.000173,  1.924132,  0.579043 )     0.98512724
  WF centre and spread   14  (  1.624894,  0.938780,  3.272946 )     1.06415653
  WF centre and spread   15  (  1.624848,  0.983476,  3.181896 )     0.98511274
  WF centre and spread   16  (  1.624898,  0.889973,  3.181919 )     0.98512871
  Sum of centres and spreads ( 12.997799, 22.512848, 24.480863 )    10.05431665
 
     32    -0.670E-05     0.0026147809       10.0543166494       0.36  <-- CONV
        O_D=      0.0023770 O_OD=      0.3004026 O_TOT=     10.0543166 <-- SPRD
 Delta: O_D=  0.3175357E-06 O_OD= -0.7021384E-05 O_TOT= -0.6703849E-05 <-- DLTA
 ------------------------------------------------------------------------------
 Cycle:     33
  WF centre and spread    1  ( -0.000161,  1.876152,  2.625786 )     0.42004435
  WF centre and spread    2  ( -0.000162,  1.874886,  2.589049 )     0.39048052
  WF centre and spread    3  ( -0.000164,  1.877465,  2.589014 )     0.39053289
  WF centre and spread    4  ( -0.000155,  1.857688,  2.605660 )     0.39581360
  WF centre and spread    5  ( -0.000172,  1.894558,  2.605654 )     0.39578606
  WF centre and spread    6  (  1.624886,  0.937954,  0.022912 )     0.42004635
  WF centre and spread    7  (  1.624887,  0.939220, -0.013825 )     0.39048146
  WF centre and spread    8  (  1.624889,  0.936641, -0.013861 )     0.39053383
  WF centre and spread    9  (  1.624880,  0.956418,  0.002786 )     0.39581352
  WF centre and spread   10  (  1.624897,  0.919548,  0.002780 )     0.39578598
  WF centre and spread   11  ( -0.000169,  1.875317,  0.670069 )     1.06415750
  WF centre and spread   12  ( -0.000123,  1.830633,  0.579021 )     0.98516228
  WF centre and spread   13  ( -0.000173,  1.924141,  0.579043 )     0.98517374
  WF centre and spread   14  (  1.624894,  0.938788,  3.272947 )     1.06416035
  WF centre and spread   15  (  1.624848,  0.983473,  3.181897 )     0.98516375
  WF centre and spread   16  (  1.624898,  0.889965,  3.181919 )     0.98517521
  Sum of centres and spreads ( 12.997799, 22.512848, 24.480852 )    10.05431139
 
     33    -0.526E-05     0.0022974649       10.0543113910       0.37  <-- CONV
        O_D=      0.0023771 O_OD=      0.3003972 O_TOT=     10.0543114 <-- SPRD
 Delta: O_D=  0.9494284E-07 O_OD= -0.5353331E-05 O_TOT= -0.5258388E-05 <-- DLTA
 ------------------------------------------------------------------------------
 Cycle:     34
  WF centre and spread    1  ( -0.000161,  1.876152,  2.625776 )     0.42003735
  WF centre and spread    2  ( -0.000162,  1.874887,  2.589051 )     0.39046122
  WF centre and spread    3  ( -0.000164,  1.877463,  2.589020 )     0.39050799
  WF centre and spread    4  ( -0.000155,  1.857692,  2.605658 )     0.39580355
  WF centre and spread    5  ( -0.000172,  1.894553,  2.605653 )     0.39577637
  WF centre and spread    6  (  1.624886,  0.937954,  0.022901 )     0.42003935
  WF centre and spread    7  (  1.624887,  0.939219, -0.013823 )     0.39046216
  WF centre and spread    8  (  1.624889,  0.936643, -0.013854 )     0.39050893
  WF centre and spread    9  (  1.624880,  0.956414,  0.002784 )     0.39580346
  WF centre and spread   10  (  1.624897,  0.919553,  0.002778 )     0.39577628
  WF centre and spread   11  ( -0.000169,  1.875309,  0.670070 )     1.06415916
  WF centre and spread   12  ( -0.000123,  1.830635,  0.579023 )     0.98519648
  WF centre and spread   13  ( -0.000173,  1.924147,  0.579044 )     0.98520733
  WF centre and spread   14  (  1.624894,  0.938796,  3.272948 )     1.06416201
  WF centre and spread   15  (  1.624848,  0.983471,  3.181898 )     0.98519795
  WF centre and spread   16  (  1.624898,  0.889958,  3.181920 )     0.98520880
  Sum of centres and spreads ( 12.997799, 22.512848, 24.480847 )    10.05430840
 
     34    -0.299E-05     0.0020146821       10.0543083960       0.38  <-- CONV
        O_D=      0.0023767 O_OD=      0.3003946 O_TOT=     10.0543084 <-- SPRD
 Delta: O_D= -0.3621140E-06 O_OD= -0.2632881E-05 O_TOT= -0.2994995E-05 <-- DLTA
 ------------------------------------------------------------------------------
 Cycle:     35
  WF centre and spread    1  ( -0.000161,  1.876152,  2.625770 )     0.42003117
  WF centre and spread    2  ( -0.000162,  1.874888,  2.589052 )     0.39045207
  WF centre and spread    3  ( -0.000164,  1.877462,  2.589024 )     0.39049588
  WF centre and spread    4  ( -0.000156,  1.857695,  2.605657 )     0.39579762
  WF centre and spread    5  ( -0.000172,  1.894551,  2.605652 )     0.39577072
  WF centre and spread    6  (  1.624886,  0.937954,  0.022896 )     0.42003317
  WF centre and spread    7  (  1.624887,  0.939218, -0.013822 )     0.39045300
  WF centre and spread    8  (  1.624889,  0.936644, -0.013851 )     0.39049682
  WF centre and spread    9  (  1.624880,  0.956411,  0.002783 )     0.39579754
  WF centre and spread   10  (  1.624897,  0.919555,  0.002777 )     0.39577064
  WF centre and spread   11  ( -0.000169,  1.875302,  0.670070 )     1.06416086
  WF centre and spread   12  ( -0.000123,  1.830636,  0.579024 )     0.98521364
  WF centre and spread   13  ( -0.000173,  1.924153,  0.579045 )     0.98522674
  WF centre and spread   14  (  1.624894,  0.938804,  3.272948 )     1.06416371
  WF centre and spread   15  (  1.624848,  0.983470,  3.181900 )     0.98521511
  WF centre and spread   16  (  1.624898,  0.889953,  3.181921 )     0.98522821
  Sum of centres and spreads ( 12.997799, 22.512848, 24.480846 )    10.05430692
 
     35    -0.148E-05     0.0013312053       10.0543069177       0.39  <-- CONV
        O_D=      0.0023764 O_OD=      0.3003934 O_TOT=     10.0543069 <-- SPRD
 Delta: O_D= -0.2872280E-06 O_OD= -0.1191044E-05 O_TOT= -0.1478272E-05 <-- DLTA
 ------------------------------------------------------------------------------
 Cycle:     36
  WF centre and spread    1  ( -0.000161,  1.876153,  2.625767 )     0.42002841
  WF centre and spread    2  ( -0.000162,  1.874888,  2.589053 )     0.39044938
  WF centre and spread    3  ( -0.000164,  1.877462,  2.589025 )     0.39049184
  WF centre and spread    4  ( -0.000156,  1.857696,  2.605657 )     0.39579511
  WF centre and spread    5  ( -0.000172,  1.894550,  2.605652 )     0.39576842
  WF centre and spread    6  (  1.624886,  0.937953,  0.022893 )     0.42003041
  WF centre and spread    7  (  1.624887,  0.939218, -0.013821 )     0.39045031
  WF centre and spread    8  (  1.624889,  0.936644, -0.013849 )     0.39049277
  WF centre and spread    9  (  1.624880,  0.956410,  0.002783 )     0.39579503
  WF centre and spread   10  (  1.624897,  0.919556,  0.002777 )     0.39576834
  WF centre and spread   11  ( -0.000169,  1.875295,  0.670068 )     1.06416073
  WF centre and spread   12  ( -0.000123,  1.830637,  0.579025 )     0.98521938
  WF centre and spread   13  ( -0.000173,  1.924158,  0.579047 )     0.98523508
  WF centre and spread   14  (  1.624894,  0.938811,  3.272946 )     1.06416358
  WF centre and spread   15  (  1.624848,  0.983470,  3.181901 )     0.98522084
[...]
  WF centre and spread    5  ( -0.000175,  1.894531,  2.605700 )     0.39571281
  WF centre and spread    6  (  1.624885,  0.937960,  0.022895 )     0.42003287
  WF centre and spread    7  (  1.624888,  0.939194, -0.013873 )     0.39052800
  WF centre and spread    8  (  1.624889,  0.936602, -0.013891 )     0.39056275
  WF centre and spread    9  (  1.624877,  0.956447,  0.002825 )     0.39574795
  WF centre and spread   10  (  1.624900,  0.919575,  0.002825 )     0.39571272
  WF centre and spread   11  ( -0.000184,  1.873013,  0.669822 )     1.06402258
  WF centre and spread   12  ( -0.000050,  1.830633,  0.579028 )     0.98519374
  WF centre and spread   13  ( -0.000227,  1.926557,  0.579282 )     0.98526268
  WF centre and spread   14  (  1.624909,  0.941092,  3.272700 )     1.06402544
  WF centre and spread   15  (  1.624775,  0.983473,  3.181903 )     0.98519521
  WF centre and spread   16  (  1.624952,  0.887549,  3.182158 )     0.98526415
  Sum of centres and spreads ( 12.997799, 22.512848, 24.480829 )    10.05412868
 
    413    -0.234E-07     0.0001448211       10.0541286769       3.85  <-- CONV
        O_D=      0.0023853 O_OD=      0.3002063 O_TOT=     10.0541287 <-- SPRD
 Delta: O_D= -0.1503543E-07 O_OD= -0.8318784E-08 O_TOT= -0.2335421E-07 <-- DLTA
 ------------------------------------------------------------------------------
 Cycle:    414
  WF centre and spread    1  ( -0.000160,  1.876145,  2.625769 )     0.42003100
  WF centre and spread    2  ( -0.000163,  1.874912,  2.589002 )     0.39052793
  WF centre and spread    3  ( -0.000164,  1.877505,  2.588984 )     0.39056254
  WF centre and spread    4  ( -0.000152,  1.857658,  2.605700 )     0.39574758
  WF centre and spread    5  ( -0.000175,  1.894531,  2.605700 )     0.39571219
  WF centre and spread    6  (  1.624885,  0.937961,  0.022895 )     0.42003300
  WF centre and spread    7  (  1.624888,  0.939194, -0.013873 )     0.39052887
  WF centre and spread    8  (  1.624889,  0.936601, -0.013891 )     0.39056348
  WF centre and spread    9  (  1.624877,  0.956448,  0.002826 )     0.39574749
  WF centre and spread   10  (  1.624900,  0.919575,  0.002826 )     0.39571210
  WF centre and spread   11  ( -0.000184,  1.873012,  0.669822 )     1.06402224
  WF centre and spread   12  ( -0.000049,  1.830633,  0.579028 )     0.98519347
  WF centre and spread   13  ( -0.000227,  1.926559,  0.579282 )     0.98526262
  WF centre and spread   14  (  1.624909,  0.941094,  3.272700 )     1.06402510
  WF centre and spread   15  (  1.624774,  0.983473,  3.181903 )     0.98519493
  WF centre and spread   16  (  1.624952,  0.887547,  3.182158 )     0.98526409
  Sum of centres and spreads ( 12.997799, 22.512848, 24.480829 )    10.05412865
 
    414    -0.283E-07     0.0001521042       10.0541286486       3.86  <-- CONV
        O_D=      0.0023853 O_OD=      0.3002062 O_TOT=     10.0541286 <-- SPRD
 Delta: O_D= -0.7383738E-08 O_OD= -0.2094202E-07 O_TOT= -0.2832576E-07 <-- DLTA
 ------------------------------------------------------------------------------
 Cycle:    415
  WF centre and spread    1  ( -0.000160,  1.876145,  2.625769 )     0.42003083
  WF centre and spread    2  ( -0.000163,  1.874912,  2.589001 )     0.39052764
  WF centre and spread    3  ( -0.000164,  1.877505,  2.588984 )     0.39056226
  WF centre and spread    4  ( -0.000152,  1.857658,  2.605700 )     0.39574763
  WF centre and spread    5  ( -0.000175,  1.894531,  2.605700 )     0.39571224
  WF centre and spread    6  (  1.624885,  0.937961,  0.022895 )     0.42003283
  WF centre and spread    7  (  1.624888,  0.939194, -0.013873 )     0.39052858
  WF centre and spread    8  (  1.624889,  0.936601, -0.013891 )     0.39056320
  WF centre and spread    9  (  1.624877,  0.956448,  0.002826 )     0.39574754
  WF centre and spread   10  (  1.624900,  0.919575,  0.002826 )     0.39571215
  WF centre and spread   11  ( -0.000184,  1.873012,  0.669822 )     1.06402240
  WF centre and spread   12  ( -0.000049,  1.830633,  0.579028 )     0.98519373
  WF centre and spread   13  ( -0.000227,  1.926559,  0.579282 )     0.98526285
  WF centre and spread   14  (  1.624909,  0.941094,  3.272700 )     1.06402526
  WF centre and spread   15  (  1.624774,  0.983473,  3.181903 )     0.98519519
  WF centre and spread   16  (  1.624952,  0.887547,  3.182158 )     0.98526431
  Sum of centres and spreads ( 12.997799, 22.512848, 24.480829 )    10.05412862
 
    415    -0.280E-07     0.0002407320       10.0541286206       3.87  <-- CONV
        O_D=      0.0023853 O_OD=      0.3002062 O_TOT=     10.0541286 <-- SPRD
 Delta: O_D=  0.1308630E-07 O_OD= -0.4110252E-07 O_TOT= -0.2801622E-07 <-- DLTA
 ------------------------------------------------------------------------------
 Cycle:    416
  WF centre and spread    1  ( -0.000160,  1.876145,  2.625769 )     0.42003068
  WF centre and spread    2  ( -0.000163,  1.874912,  2.589001 )     0.39052685
  WF centre and spread    3  ( -0.000164,  1.877505,  2.588983 )     0.39056148
  WF centre and spread    4  ( -0.000152,  1.857659,  2.605700 )     0.39574769
  WF centre and spread    5  ( -0.000175,  1.894530,  2.605700 )     0.39571230
  WF centre and spread    6  (  1.624885,  0.937961,  0.022895 )     0.42003268
  WF centre and spread    7  (  1.624888,  0.939194, -0.013873 )     0.39052779
  WF centre and spread    8  (  1.624889,  0.936601, -0.013891 )     0.39056242
  WF centre and spread    9  (  1.624877,  0.956447,  0.002826 )     0.39574760
  WF centre and spread   10  (  1.624900,  0.919576,  0.002826 )     0.39571221
  WF centre and spread   11  ( -0.000184,  1.873012,  0.669822 )     1.06402256
  WF centre and spread   12  ( -0.000049,  1.830634,  0.579028 )     0.98519446
  WF centre and spread   13  ( -0.000227,  1.926559,  0.579282 )     0.98526352
  WF centre and spread   14  (  1.624909,  0.941094,  3.272700 )     1.06402542
  WF centre and spread   15  (  1.624774,  0.983473,  3.181903 )     0.98519593
  WF centre and spread   16  (  1.624952,  0.887547,  3.182158 )     0.98526498
  Sum of centres and spreads ( 12.997799, 22.512848, 24.480828 )    10.05412860
 
    416    -0.230E-07     0.0001512673       10.0541285976       3.88  <-- CONV
        O_D=      0.0023853 O_OD=      0.3002062 O_TOT=     10.0541286 <-- SPRD
 Delta: O_D=  0.2141319E-07 O_OD= -0.4445068E-07 O_TOT= -0.2303749E-07 <-- DLTA
 ------------------------------------------------------------------------------
 Cycle:    417
  WF centre and spread    1  ( -0.000160,  1.876145,  2.625769 )     0.42003075
  WF centre and spread    2  ( -0.000163,  1.874912,  2.589001 )     0.39052589
  WF centre and spread    3  ( -0.000164,  1.877505,  2.588983 )     0.39056053
  WF centre and spread    4  ( -0.000152,  1.857659,  2.605700 )     0.39574771
  WF centre and spread    5  ( -0.000175,  1.894530,  2.605700 )     0.39571231
  WF centre and spread    6  (  1.624885,  0.937961,  0.022894 )     0.42003275
  WF centre and spread    7  (  1.624888,  0.939194, -0.013873 )     0.39052683
  WF centre and spread    8  (  1.624889,  0.936601, -0.013891 )     0.39056147
  WF centre and spread    9  (  1.624877,  0.956447,  0.002826 )     0.39574762
  WF centre and spread   10  (  1.624900,  0.919576,  0.002826 )     0.39571222
  WF centre and spread   11  ( -0.000184,  1.873011,  0.669822 )     1.06402264
  WF centre and spread   12  ( -0.000049,  1.830634,  0.579028 )     0.98519535
  WF centre and spread   13  ( -0.000227,  1.926559,  0.579282 )     0.98526437
  WF centre and spread   14  (  1.624909,  0.941094,  3.272700 )     1.06402550
  WF centre and spread   15  (  1.624774,  0.983473,  3.181903 )     0.98519682
  WF centre and spread   16  (  1.624952,  0.887547,  3.182158 )     0.98526583
  Sum of centres and spreads ( 12.997799, 22.512848, 24.480828 )    10.05412858
 
    417    -0.188E-07     0.0001445308       10.0541285788       3.89  <-- CONV
        O_D=      0.0023853 O_OD=      0.3002061 O_TOT=     10.0541286 <-- SPRD
 Delta: O_D= -0.8629030E-09 O_OD= -0.1788919E-07 O_TOT= -0.1875209E-07 <-- DLTA
 ------------------------------------------------------------------------------
 Cycle:    418
  WF centre and spread    1  ( -0.000160,  1.876145,  2.625769 )     0.42003079
  WF centre and spread    2  ( -0.000163,  1.874912,  2.589001 )     0.39052531
  WF centre and spread    3  ( -0.000164,  1.877505,  2.588983 )     0.39055996
  WF centre and spread    4  ( -0.000152,  1.857659,  2.605700 )     0.39574767
  WF centre and spread    5  ( -0.000175,  1.894530,  2.605700 )     0.39571227
  WF centre and spread    6  (  1.624885,  0.937961,  0.022895 )     0.42003279
  WF centre and spread    7  (  1.624888,  0.939194, -0.013873 )     0.39052625
  WF centre and spread    8  (  1.624889,  0.936601, -0.013891 )     0.39056090
  WF centre and spread    9  (  1.624877,  0.956447,  0.002826 )     0.39574758
  WF centre and spread   10  (  1.624900,  0.919576,  0.002826 )     0.39571218
  WF centre and spread   11  ( -0.000184,  1.873011,  0.669822 )     1.06402277
  WF centre and spread   12  ( -0.000049,  1.830634,  0.579028 )     0.98519586
  WF centre and spread   13  ( -0.000227,  1.926558,  0.579282 )     0.98526491
  WF centre and spread   14  (  1.624909,  0.941094,  3.272700 )     1.06402563
  WF centre and spread   15  (  1.624774,  0.983472,  3.181903 )     0.98519733
  WF centre and spread   16  (  1.624952,  0.887547,  3.182158 )     0.98526637
  Sum of centres and spreads ( 12.997799, 22.512848, 24.480828 )    10.05412857
 
    418    -0.990E-08     0.0001156361       10.0541285689       3.90  <-- CONV
        O_D=      0.0023853 O_OD=      0.3002061 O_TOT=     10.0541286 <-- SPRD
 Delta: O_D= -0.1435463E-07 O_OD=  0.4457091E-08 O_TOT= -0.9897533E-08 <-- DLTA
 ------------------------------------------------------------------------------
 Cycle:    419
  WF centre and spread    1  ( -0.000160,  1.876145,  2.625769 )     0.42003079
  WF centre and spread    2  ( -0.000163,  1.874912,  2.589001 )     0.39052505
  WF centre and spread    3  ( -0.000164,  1.877505,  2.588983 )     0.39055970
  WF centre and spread    4  ( -0.000152,  1.857659,  2.605700 )     0.39574764
  WF centre and spread    5  ( -0.000175,  1.894529,  2.605700 )     0.39571222
  WF centre and spread    6  (  1.624885,  0.937961,  0.022895 )     0.42003279
  WF centre and spread    7  (  1.624888,  0.939194, -0.013873 )     0.39052599
  WF centre and spread    8  (  1.624889,  0.936601, -0.013891 )     0.39056064
  WF centre and spread    9  (  1.624877,  0.956447,  0.002826 )     0.39574755
  WF centre and spread   10  (  1.624900,  0.919577,  0.002826 )     0.39571213
  WF centre and spread   11  ( -0.000184,  1.873011,  0.669822 )     1.06402284
  WF centre and spread   12  ( -0.000049,  1.830634,  0.579027 )     0.98519610
  WF centre and spread   13  ( -0.000227,  1.926558,  0.579282 )     0.98526519
  WF centre and spread   14  (  1.624909,  0.941095,  3.272700 )     1.06402570
  WF centre and spread   15  (  1.624774,  0.983472,  3.181903 )     0.98519756
  WF centre and spread   16  (  1.624952,  0.887547,  3.182158 )     0.98526666
  Sum of centres and spreads ( 12.997799, 22.512848, 24.480828 )    10.05412856
 
    419    -0.516E-08     0.0000813033       10.0541285638       3.91  <-- CONV
        O_D=      0.0023853 O_OD=      0.3002061 O_TOT=     10.0541286 <-- SPRD
 Delta: O_D= -0.4207636E-08 O_OD= -0.9485630E-09 O_TOT= -0.5156201E-08 <-- DLTA
 ------------------------------------------------------------------------------
 Cycle:    420
  WF centre and spread    1  ( -0.000160,  1.876145,  2.625769 )     0.42003080
  WF centre and spread    2  ( -0.000163,  1.874912,  2.589001 )     0.39052502
  WF centre and spread    3  ( -0.000164,  1.877505,  2.588983 )     0.39055966
  WF centre and spread    4  ( -0.000152,  1.857659,  2.605700 )     0.39574761
  WF centre and spread    5  ( -0.000175,  1.894529,  2.605700 )     0.39571217
  WF centre and spread    6  (  1.624885,  0.937961,  0.022895 )     0.42003280
  WF centre and spread    7  (  1.624888,  0.939194, -0.013873 )     0.39052596
  WF centre and spread    8  (  1.624889,  0.936601, -0.013891 )     0.39056060
  WF centre and spread    9  (  1.624877,  0.956447,  0.002826 )     0.39574752
  WF centre and spread   10  (  1.624900,  0.919577,  0.002826 )     0.39571208
  WF centre and spread   11  ( -0.000184,  1.873011,  0.669822 )     1.06402283
  WF centre and spread   12  ( -0.000049,  1.830634,  0.579027 )     0.98519616
  WF centre and spread   13  ( -0.000227,  1.926559,  0.579282 )     0.98526529
  WF centre and spread   14  (  1.624909,  0.941095,  3.272700 )     1.06402569
  WF centre and spread   15  (  1.624774,  0.983472,  3.181903 )     0.98519763
  WF centre and spread   16  (  1.624952,  0.887547,  3.182158 )     0.98526675
  Sum of centres and spreads ( 12.997799, 22.512848, 24.480828 )    10.05412856
 
    420    -0.280E-08     0.0000590282       10.0541285610       3.92  <-- CONV
        O_D=      0.0023853 O_OD=      0.3002061 O_TOT=     10.0541286 <-- SPRD
 Delta: O_D=  0.1785477E-08 O_OD= -0.4581278E-08 O_TOT= -0.2795799E-08 <-- DLTA
 ------------------------------------------------------------------------------
 Cycle:    421
  WF centre and spread    1  ( -0.000160,  1.876145,  2.625769 )     0.42003079
  WF centre and spread    2  ( -0.000163,  1.874912,  2.589001 )     0.39052510
  WF centre and spread    3  ( -0.000164,  1.877505,  2.588983 )     0.39055974
  WF centre and spread    4  ( -0.000152,  1.857659,  2.605700 )     0.39574760
  WF centre and spread    5  ( -0.000175,  1.894529,  2.605700 )     0.39571216
  WF centre and spread    6  (  1.624885,  0.937961,  0.022895 )     0.42003279
  WF centre and spread    7  (  1.624888,  0.939194, -0.013873 )     0.39052604
  WF centre and spread    8  (  1.624889,  0.936601, -0.013891 )     0.39056068
  WF centre and spread    9  (  1.624877,  0.956447,  0.002826 )     0.39574751
  WF centre and spread   10  (  1.624900,  0.919577,  0.002826 )     0.39571207
  WF centre and spread   11  ( -0.000184,  1.873011,  0.669822 )     1.06402282
  WF centre and spread   12  ( -0.000049,  1.830634,  0.579027 )     0.98519611
  WF centre and spread   13  ( -0.000228,  1.926559,  0.579282 )     0.98526522
  WF centre and spread   14  (  1.624909,  0.941095,  3.272700 )     1.06402568
  WF centre and spread   15  (  1.624774,  0.983472,  3.181903 )     0.98519757
  WF centre and spread   16  (  1.624952,  0.887547,  3.182158 )     0.98526669
  Sum of centres and spreads ( 12.997799, 22.512848, 24.480828 )    10.05412856
 
    421    -0.278E-08     0.0000681952       10.0541285582       3.92  <-- CONV
        O_D=      0.0023853 O_OD=      0.3002061 O_TOT=     10.0541286 <-- SPRD
 Delta: O_D= -0.1126694E-08 O_OD= -0.1652847E-08 O_TOT= -0.2779544E-08 <-- DLTA
 ------------------------------------------------------------------------------
 Cycle:    422
  WF centre and spread    1  ( -0.000160,  1.876145,  2.625769 )     0.42003077
  WF centre and spread    2  ( -0.000163,  1.874912,  2.589001 )     0.39052546
  WF centre and spread    3  ( -0.000164,  1.877505,  2.588983 )     0.39056007
  WF centre and spread    4  ( -0.000152,  1.857659,  2.605700 )     0.39574755
  WF centre and spread    5  ( -0.000175,  1.894529,  2.605700 )     0.39571210
  WF centre and spread    6  (  1.624885,  0.937961,  0.022895 )     0.42003277
  WF centre and spread    7  (  1.624888,  0.939194, -0.013873 )     0.39052640
  WF centre and spread    8  (  1.624889,  0.936601, -0.013891 )     0.39056101
  WF centre and spread    9  (  1.624877,  0.956447,  0.002826 )     0.39574746
  WF centre and spread   10  (  1.624900,  0.919576,  0.002826 )     0.39571201
  WF centre and spread   11  ( -0.000184,  1.873011,  0.669822 )     1.06402272
  WF centre and spread   12  ( -0.000049,  1.830634,  0.579028 )     0.98519588
  WF centre and spread   13  ( -0.000228,  1.926559,  0.579282 )     0.98526497
  WF centre and spread   14  (  1.624909,  0.941095,  3.272700 )     1.06402558
  WF centre and spread   15  (  1.624774,  0.983472,  3.181903 )     0.98519734
  WF centre and spread   16  (  1.624952,  0.887547,  3.182158 )     0.98526644
  Sum of centres and spreads ( 12.997799, 22.512848, 24.480828 )    10.05412855
 
    422    -0.517E-08     0.0000589830       10.0541285530       3.93  <-- CONV
        O_D=      0.0023853 O_OD=      0.3002061 O_TOT=     10.0541286 <-- SPRD
 Delta: O_D=  0.5541304E-08 O_OD= -0.1071604E-07 O_TOT= -0.5174732E-08 <-- DLTA
 ------------------------------------------------------------------------------

             <<<     Delta < 1.000E-08  over  5 iterations     >>>
             <<< Wannierisation convergence criteria satisfied >>>

 Final State
  WF centre and spread    1  ( -0.000160,  1.876145,  2.625769 )     0.42003077
  WF centre and spread    2  ( -0.000163,  1.874912,  2.589001 )     0.39052546
  WF centre and spread    3  ( -0.000164,  1.877505,  2.588983 )     0.39056007
  WF centre and spread    4  ( -0.000152,  1.857659,  2.605700 )     0.39574755
  WF centre and spread    5  ( -0.000175,  1.894529,  2.605700 )     0.39571210
  WF centre and spread    6  (  1.624885,  0.937961,  0.022895 )     0.42003277
  WF centre and spread    7  (  1.624888,  0.939194, -0.013873 )     0.39052640
  WF centre and spread    8  (  1.624889,  0.936601, -0.013891 )     0.39056101
  WF centre and spread    9  (  1.624877,  0.956447,  0.002826 )     0.39574746
  WF centre and spread   10  (  1.624900,  0.919576,  0.002826 )     0.39571201
  WF centre and spread   11  ( -0.000184,  1.873011,  0.669822 )     1.06402272
  WF centre and spread   12  ( -0.000049,  1.830634,  0.579028 )     0.98519588
  WF centre and spread   13  ( -0.000228,  1.926559,  0.579282 )     0.98526497
  WF centre and spread   14  (  1.624909,  0.941095,  3.272700 )     1.06402558
  WF centre and spread   15  (  1.624774,  0.983472,  3.181903 )     0.98519734
  WF centre and spread   16  (  1.624952,  0.887547,  3.182158 )     0.98526644
  Sum of centres and spreads ( 12.997799, 22.512848, 24.480828 )    10.05412855
 
         Spreads (Ang^2)       Omega I      =     9.751537102
        ================       Omega D      =     0.002385330
                               Omega OD     =     0.300206121
    Final Spread (Ang^2)       Omega Total  =    10.054128553
 ------------------------------------------------------------------------------

 Wannier centres written to file wann_centres.xyz
 Time for wannierise            3.918 (sec)

 Writing checkpoint file wann.chk... done

 *---------------------------------------------------------------------------*
 |                               PLOTTING                                    |
 *---------------------------------------------------------------------------*
 
 
 Calculating interpolated band-structure
 
 Time to calculate interpolated band structure       0.647 (sec)
 
 Time for plotting              0.917 (sec)
 Total Execution Time           4.975 (sec)

 *===========================================================================*
 |                             TIMING INFORMATION                            |
 *===========================================================================*
 |    Tag                                                Ncalls      Time (s)|
 |---------------------------------------------------------------------------|
 |kmesh: get                                        :         1         0.029|
 |overlap: allocate                                 :         1         0.002|
 |overlap: read                                     :         1         0.099|
 |wann: main                                        :         1         3.918|
 |plot: main                                        :         1         0.917|
 *---------------------------------------------------------------------------*
 
 All done: wannier90 exiting
