 
             +---------------------------------------------------+
             |                                                   |
             |                   WANNIER90                       |
             |                                                   |
             +---------------------------------------------------+
             |                                                   |
             |        Welcome to the Maximally-Localized         |
             |        Generalized Wannier Functions code         |
             |            http://www.wannier.org                 |
             |                                                   |
             |                                                   |
             |  Wannier90 Developer Group:                       |
             |    Giovanni Pizzi    (EPFL)                       |
             |    Valerio Vitale    (Cambridge)                  |
             |    David Vanderbilt  (Rutgers University)         |
             |    Nicola Marzari    (EPFL)                       |
             |    Ivo Souza         (Universidad del Pais Vasco) |
             |    Arash A. Mostofi  (Imperial College London)    |
             |    Jonathan R. Yates (University of Oxford)       |
             |                                                   |
             |  For the full list of Wannier90 3.x authors,      |
             |  please check the code documentation and the      |
             |  README on the GitHub page of the code            |
             |                                                   |
             |                                                   |
             |  Please cite                                      |
             |                                                   |
             |  [ref] "Wannier90 as a community code:            |
             |        new features and applications",            |
             |        G. Pizzi et al., J. Phys. Cond. Matt. 32,  |
             |        165902 (2020).                             |
             |        http://doi.org/10.1088/1361-648X/ab51ff    |
             |                                                   |
             |  in any publications arising from the use of      |
             |  this code. For the method please cite            |
             |                                                   |
             |  [ref] "Maximally Localized Generalised Wannier   |
             |         Functions for Composite Energy Bands"     |
             |         N. Marzari and D. Vanderbilt              |
             |         Phys. Rev. B 56 12847 (1997)              |
             |                                                   |
             |  [ref] "Maximally Localized Wannier Functions     |
             |         for Entangled Energy Bands"               |
             |         I. Souza, N. Marzari and D. Vanderbilt    |
             |         Phys. Rev. B 65 035109 (2001)             |
             |                                                   |
             |                                                   |
             | Copyright (c) 1996-2020                           |
             |        The Wannier90 Developer Group and          |
             |        individual contributors                    |
             |                                                   |
             |      Release: 3.1.0        5th March    2020      |
             |                                                   |
             | This program is free software; you can            |
             | redistribute it and/or modify it under the terms  |
             | of the GNU General Public License as published by |
             | the Free Software Foundation; either version 2 of |
             | the License, or (at your option) any later version|
             |                                                   |
             | This program is distributed in the hope that it   |
             | will be useful, but WITHOUT ANY WARRANTY; without |
             | even the implied warranty of MERCHANTABILITY or   |
             | FITNESS FOR A PARTICULAR PURPOSE. See the GNU     |
             | General Public License for more details.          |
             |                                                   |
             | You should have received a copy of the GNU General|
             | Public License along with this program; if not,   |
             | write to the Free Software Foundation, Inc.,      |
             | 675 Mass Ave, Cambridge, MA 02139, USA.           |
             |                                                   |
             +---------------------------------------------------+
             |    Execution started on 12Dec2022 at 12:04:20     |
             +---------------------------------------------------+
 
 ******************************************************************************
 * -> Using CODATA 2006 constant values                                       *
 *    (http://physics.nist.gov/cuu/Constants/index.html)                      *
 * -> Using Bohr value from CODATA                                            *
 ******************************************************************************
 

 Running in serial (with serial executable)
 
                                    ------
                                    SYSTEM
                                    ------
 
                              Lattice Vectors (Ang)
                    a_1     3.249450   0.000000   0.000000
                    a_2    -1.624725   2.814106   0.000000
                    a_3     0.000000   0.000000   5.205748
 
                   Unit Cell Volume:      47.60290  (Ang^3)
 
                        Reciprocal-Space Vectors (Ang^-1)
                    b_1     1.933615   1.116373   0.000000
                    b_2     0.000000   2.232747   0.000000
                    b_3     0.000000   0.000000   1.206971
  
 *----------------------------------------------------------------------------*
 |   Site       Fractional Coordinate          Cartesian Coordinate (Ang)     |
 +----------------------------------------------------------------------------+
 | Zn   1   0.33330   0.66670   0.50000   |   -0.00016   1.87616   2.60287    |
 | Zn   2   0.66670   0.33330   0.00000   |    1.62489   0.93794   0.00000    |
 | O    1   0.33330   0.66670   0.11725   |   -0.00016   1.87616   0.61037    |
 | O    2   0.66670   0.33330   0.61725   |    1.62489   0.93794   3.21325    |
 *----------------------------------------------------------------------------*
                                ------------
                                K-POINT GRID
                                ------------
  
             Grid size =  4 x  4 x  4      Total points =   64
  
  
 *---------------------------------- MAIN ------------------------------------*
 |  Number of Wannier Functions               :                 2             |
 |  Number of Objective Wannier Functions     :                 2             |
 |  Number of input Bloch states              :                26             |
 |  Output verbosity (1=low, 5=high)          :                 1             |
 |  Timing Level (1=low, 5=high)              :                 1             |
 |  Optimisation (0=memory, 3=speed)          :                 3             |
 |  Length Unit                               :               Ang             |
 |  Post-processing setup (write *.nnkp)      :                 F             |
 |  Using Gamma-only branch of algorithms     :                 F             |
 *----------------------------------------------------------------------------*
 *------------------------------- WANNIERISE ---------------------------------*
 |  Total number of iterations                :             10000             |
 |  Number of CG steps before reset           :                 5             |
 |  Trial step length for line search         :             2.000             |
 |  Convergence tolerence                     :         0.100E-07             |
 |  Convergence window                        :                 5             |
 |  Iterations between writing output         :                 1             |
 |  Iterations between backing up to disk     :               100             |
 |  Write r^2_nm to file                      :                 F             |
 |  Write xyz WF centres to file              :                 T             |
 |  Write on-site energies <0n|H|0n> to file  :                 F             |
 |  Use guiding centre to control phases      :                 T             |
 |  Use phases for initial projections        :                 F             |
 |  Iterations before starting guiding centres:                 0             |
 |  Iterations between using guiding centres  :                 1             |
 *----------------------------------------------------------------------------*
 *------------------------------- DISENTANGLE --------------------------------*
 |  Using band disentanglement                :                 T             |
 |  Total number of iterations                :              5000             |
 |  Mixing ratio                              :             0.500             |
 |  Convergence tolerence                     :         1.000E-10             |
 |  Convergence window                        :                 3             |
 *----------------------------------------------------------------------------*
 *-------------------------------- PLOTTING ----------------------------------*
 |  Plotting interpolated bandstructure       :                 T             |
 |   Number of K-path sections                :                 6             |
 |   Divisions along first K-path section     :               100             |
 |   Output format                            :           gnuplot             |
 |   Output mode                              :               s-k             |
 *----------------------------------------------------------------------------*
 |   K-space path sections:                                                   |
 |    From: A       0.000  0.000  0.500     To: L       0.500  0.000  0.500   |
 |    From: L       0.500  0.000  0.500     To: M       0.500  0.000  0.000   |
 |    From: M       0.500  0.000  0.000     To: G       0.000  0.000  0.000   |
 |    From: G       0.000  0.000  0.000     To: A       0.000  0.000  0.500   |
 |    From: A       0.000  0.000  0.500     To: H       0.333  0.333  0.500   |
 |    From: H       0.333  0.333  0.500     To: K       0.333  0.333  0.000   |
 *----------------------------------------------------------------------------*
 |  Plotting Hamiltonian in WF basis          :                 T             |
 *----------------------------------------------------------------------------*
 Time to read parameters        0.009 (sec)

 *---------------------------------- K-MESH ----------------------------------*
 +----------------------------------------------------------------------------+
 |                    Distance to Nearest-Neighbour Shells                    |
 |                    ------------------------------------                    |
 |          Shell             Distance (Ang^-1)          Multiplicity         |
 |          -----             -----------------          ------------         |
 |             1                   0.301743                      2            |
 |             2                   0.558187                      6            |
 |             3                   0.603485                      2            |
 |             4                   0.634524                     12            |
 |             5                   0.822050                     12            |
 |             6                   0.905228                      2            |
 |             7                   0.966808                      6            |
 |             8                   1.012801                     12            |
 |             9                   1.063490                     12            |
 |            10                   1.116373                      6            |
 |            11                   1.139698                     12            |
 |            12                   1.156433                     12            |
 |            13                   1.206971                      2            |
 |            14                   1.269048                     12            |
 |            15                   1.324445                     12            |
 |            16                   1.329793                     12            |
 |            17                   1.437264                     12            |
 |            18                   1.476823                     12            |
 |            19                   1.507334                     24            |
 |            20                   1.508713                      2            |
 |            21                   1.546446                     12            |
 |            22                   1.595369                     24            |
 |            23                   1.608660                     12            |
 |            24                   1.644101                     12            |
 |            25                   1.674560                      6            |
 |            26                   1.701529                     12            |
 |            27                   1.732179                     24            |
 |            28                   1.779985                     12            |
 |            29                   1.791908                     12            |
 |            30                   1.810456                      2            |
 |            31                   1.876834                     12            |
 |            32                   1.894551                     12            |
 |            33                   1.903573                     12            |
 |            34                   1.907298                     24            |
 |            35                   1.933615                      6            |
 |            36                   1.957017                     12            |
 +----------------------------------------------------------------------------+
 | The b-vectors are chosen automatically                                     |
 | The following shells are used:   1,  2                                     |
 +----------------------------------------------------------------------------+
 |                        Shell   # Nearest-Neighbours                        |
 |                        -----   --------------------                        |
 |                          1               2                                 |
 |                          2               6                                 |
 +----------------------------------------------------------------------------+
 | Completeness relation is fully satisfied [Eq. (B1), PRB 56, 12847 (1997)]  |
 +----------------------------------------------------------------------------+
 |                  b_k Vectors (Ang^-1) and Weights (Ang^2)                  |
 |                  ----------------------------------------                  |
 |            No.         b_k(x)      b_k(y)      b_k(z)        w_b           |
 |            ---        --------------------------------     --------        |
 |             1         0.000000    0.000000    0.301743     5.491571        |
 |             2         0.000000    0.000000   -0.301743     5.491571        |
 |             3         0.000000    0.558187    0.000000     1.069843        |
 |             4         0.000000   -0.558187    0.000000     1.069843        |
 |             5         0.483404    0.279093    0.000000     1.069843        |
 |             6         0.483404   -0.279093    0.000000     1.069843        |
 |             7        -0.483404   -0.279093    0.000000     1.069843        |
 |             8        -0.483404    0.279093    0.000000     1.069843        |
 +----------------------------------------------------------------------------+
 |                           b_k Directions (Ang^-1)                          |
 |                           -----------------------                          |
 |            No.           x           y           z                         |
 |            ---        --------------------------------                     |
 |             1         0.000000    0.000000    0.301743                     |
 |             2         0.000000    0.558187    0.000000                     |
 |             3         0.483404    0.279093    0.000000                     |
 |             4         0.483404   -0.279093    0.000000                     |
 +----------------------------------------------------------------------------+
  
 Time to get kmesh              0.030 (sec)
 *============================================================================*
 |                              MEMORY ESTIMATE                               |
 |         Maximum RAM allocated during each phase of the calculation         |
 *============================================================================*
 |                        Disentanglement            6.79 Mb                  |
 |                            Wannierise:            0.21 Mb                  |
 |                          plot_wannier:            0.21 Mb                  |
 *----------------------------------------------------------------------------*
  
 Starting a new Wannier90 calculation ...


 Reading overlaps from wann.mmn    :  Created on 12Dec2022 at 12: 4:19

 Reading projections from wann.amn :  Created on 12Dec2022 at 12: 4:18

 Time to read overlaps          0.217 (sec)

 *------------------------------- DISENTANGLE --------------------------------*
 +----------------------------------------------------------------------------+
 |                              Energy  Windows                               |
 |                              ---------------                               |
 |                   Outer:    9.97684  to   17.00000  (eV)                   |
 |                   Inner:    9.97684  to   14.50000  (eV)                   |
 +----------------------------------------------------------------------------+
   Number of target bands to extract:    2

                   Unitarised projection of Wannier functions                  
                   ------------------------------------------                  
   A_mn = <psi_m|g_n> --> S = A.A^+ --> U = S^-1/2.A
   In dis_project... done
   Using an inner window (linner = T)
   In dis_proj_froz... done

                   Extraction of optimally-connected subspace                  
                   ------------------------------------------                  
 +---------------------------------------------------------------------+<-- DIS
 |  Iter     Omega_I(i-1)      Omega_I(i)      Delta (frac.)    Time   |<-- DIS
 +---------------------------------------------------------------------+<-- DIS
       1       9.27751257       9.26144325       1.735E-03      0.00    <-- DIS
       2       9.26738229       9.26144325       6.413E-04      0.00    <-- DIS
       3       9.26441277       9.26144325       3.206E-04      0.00    <-- DIS
       4       9.26292801       9.26144325       1.603E-04      0.00    <-- DIS
       5       9.26218563       9.26144325       8.016E-05      0.00    <-- DIS
       6       9.26181444       9.26144325       4.008E-05      0.00    <-- DIS
       7       9.26162885       9.26144325       2.004E-05      0.00    <-- DIS
       8       9.26153605       9.26144325       1.002E-05      0.00    <-- DIS
       9       9.26148965       9.26144325       5.010E-06      0.00    <-- DIS
      10       9.26146645       9.26144325       2.505E-06      0.00    <-- DIS
      11       9.26145485       9.26144325       1.252E-06      0.00    <-- DIS
      12       9.26144905       9.26144325       6.262E-07      0.00    <-- DIS
      13       9.26144615       9.26144325       3.131E-07      0.00    <-- DIS
      14       9.26144470       9.26144325       1.566E-07      0.00    <-- DIS
      15       9.26144398       9.26144325       7.828E-08      0.00    <-- DIS
      16       9.26144362       9.26144325       3.914E-08      0.01    <-- DIS
      17       9.26144343       9.26144325       1.957E-08      0.01    <-- DIS
      18       9.26144334       9.26144325       9.785E-09      0.01    <-- DIS
      19       9.26144330       9.26144325       4.892E-09      0.01    <-- DIS
      20       9.26144328       9.26144325       2.446E-09      0.01    <-- DIS
      21       9.26144326       9.26144325       1.223E-09      0.01    <-- DIS
      22       9.26144326       9.26144325       6.116E-10      0.01    <-- DIS
      23       9.26144326       9.26144325       3.058E-10      0.01    <-- DIS
      24       9.26144325       9.26144325       1.529E-10      0.01    <-- DIS
      25       9.26144325       9.26144325       7.644E-11      0.01    <-- DIS
      26       9.26144325       9.26144325       3.822E-11      0.01    <-- DIS
      27       9.26144325       9.26144325       1.911E-11      0.01    <-- DIS

             <<<      Delta < 1.000E-10  over  3 iterations     >>>
             <<< Disentanglement convergence criteria satisfied >>>

        Final Omega_I     9.26144325 (Ang^2)

 +----------------------------------------------------------------------------+

 Time to disentangle bands      0.011 (sec)

 Writing checkpoint file wann.chk... done

 
 *------------------------------- WANNIERISE ---------------------------------*
 +--------------------------------------------------------------------+<-- CONV
 | Iter  Delta Spread     RMS Gradient      Spread (Ang^2)      Time  |<-- CONV
 +--------------------------------------------------------------------+<-- CONV
 
 ------------------------------------------------------------------------------
 Initial State
  WF centre and spread    1  (  0.000114,  1.876005,  2.679053 )     9.19244173
  WF centre and spread    2  (  1.624611,  0.938101,  0.076144 )     9.19277570
  Sum of centres and spreads (  1.624725,  2.814106,  2.755197 )    18.38521744
 
      0     0.184E+02     0.0000000000       18.3852174378       0.01  <-- CONV
        O_D=      6.7234370 O_OD=      2.4003372 O_TOT=     18.3852174 <-- SPRD
 ------------------------------------------------------------------------------
 Cycle:      1
  WF centre and spread    1  (  0.000223,  1.875942,  2.675112 )     8.62448250
  WF centre and spread    2  (  1.624502,  0.938164,  0.072193 )     8.62470079
  Sum of centres and spreads (  1.624725,  2.814106,  2.747305 )    17.24918329
 
      1    -0.114E+01     2.2706603470       17.2491832919       0.01  <-- CONV
        O_D=      5.4435045 O_OD=      2.5442356 O_TOT=     17.2491833 <-- SPRD
 Delta: O_D= -0.1279933E+01 O_OD=  0.1438984E+00 O_TOT= -0.1136034E+01 <-- DLTA
 ------------------------------------------------------------------------------
 Cycle:      2
  WF centre and spread    1  (  0.000332,  1.875879,  2.668912 )     8.32931947
  WF centre and spread    2  (  1.624393,  0.938227,  0.065973 )     8.32942591
  Sum of centres and spreads (  1.624725,  2.814106,  2.734885 )    16.65874538
 
      2    -0.590E+00     1.0289380421       16.6587453841       0.01  <-- CONV
        O_D=      4.5549344 O_OD=      2.8423677 O_TOT=     16.6587454 <-- SPRD
 Delta: O_D= -0.8885700E+00 O_OD=  0.2981321E+00 O_TOT= -0.5904379E+00 <-- DLTA
 ------------------------------------------------------------------------------
 Cycle:      3
  WF centre and spread    1  (  0.000411,  1.875834,  2.664532 )     8.29024209
  WF centre and spread    2  (  1.624314,  0.938272,  0.061580 )     8.29029599
  Sum of centres and spreads (  1.624725,  2.814106,  2.726112 )    16.58053808
 
      3    -0.782E-01     0.3352301024       16.5805380790       0.01  <-- CONV
        O_D=      4.4061663 O_OD=      2.9129285 O_TOT=     16.5805381 <-- SPRD
 Delta: O_D= -0.1487681E+00 O_OD=  0.7056081E-01 O_TOT= -0.7820731E-01 <-- DLTA
 ------------------------------------------------------------------------------
 Cycle:      4
  WF centre and spread    1  (  0.000522,  1.875769,  2.659283 )     8.26539140
  WF centre and spread    2  (  1.624202,  0.938337,  0.056293 )     8.26528771
  Sum of centres and spreads (  1.624725,  2.814106,  2.715576 )    16.53067911
 
      4    -0.499E-01     0.2454772736       16.5306791149       0.01  <-- CONV
        O_D=      4.3764725 O_OD=      2.8927634 O_TOT=     16.5306791 <-- SPRD
 Delta: O_D= -0.2969382E-01 O_OD= -0.2016515E-01 O_TOT= -0.4985896E-01 <-- DLTA
 ------------------------------------------------------------------------------
 Cycle:      5
  WF centre and spread    1  (  0.000597,  1.875726,  2.657820 )     8.25744662
  WF centre and spread    2  (  1.624128,  0.938380,  0.054799 )     8.25722753
  Sum of centres and spreads (  1.624725,  2.814106,  2.712620 )    16.51467415
 
      5    -0.160E-01     0.1593452677       16.5146741480       0.01  <-- CONV
        O_D=      4.3668328 O_OD=      2.8863981 O_TOT=     16.5146741 <-- SPRD
 Delta: O_D= -0.9639689E-02 O_OD= -0.6365278E-02 O_TOT= -0.1600497E-01 <-- DLTA
 ------------------------------------------------------------------------------
 Cycle:      6
  WF centre and spread    1  (  0.000643,  1.875700,  2.657537 )     8.25576479
  WF centre and spread    2  (  1.624082,  0.938406,  0.054493 )     8.25546305
  Sum of centres and spreads (  1.624725,  2.814106,  2.712030 )    16.51122784
 
      6    -0.345E-02     0.0839066242       16.5112278406       0.01  <-- CONV
        O_D=      4.3553698 O_OD=      2.8944148 O_TOT=     16.5112278 <-- SPRD
 Delta: O_D= -0.1146298E-01 O_OD=  0.8016674E-02 O_TOT= -0.3446307E-02 <-- DLTA
 ------------------------------------------------------------------------------
 Cycle:      7
  WF centre and spread    1  (  0.000676,  1.875680,  2.657542 )     8.25547001
  WF centre and spread    2  (  1.624048,  0.938426,  0.054477 )     8.25508350
  Sum of centres and spreads (  1.624725,  2.814106,  2.712019 )    16.51055351
 
      7    -0.674E-03     0.0348039683       16.5105535124       0.01  <-- CONV
        O_D=      4.3549492 O_OD=      2.8941610 O_TOT=     16.5105535 <-- SPRD
 Delta: O_D= -0.4205930E-03 O_OD= -0.2537353E-03 O_TOT= -0.6743282E-03 <-- DLTA
 ------------------------------------------------------------------------------
 Cycle:      8
  WF centre and spread    1  (  0.000728,  1.875650,  2.657726 )     8.25543736
  WF centre and spread    2  (  1.623997,  0.938456,  0.054628 )     8.25492285
  Sum of centres and spreads (  1.624725,  2.814106,  2.712354 )    16.51036021
 
      8    -0.193E-03     0.0168752766       16.5103602112       0.02  <-- CONV
        O_D=      4.3543700 O_OD=      2.8945470 O_TOT=     16.5103602 <-- SPRD
 Delta: O_D= -0.5792814E-03 O_OD=  0.3859802E-03 O_TOT= -0.1933012E-03 <-- DLTA
 ------------------------------------------------------------------------------
 Cycle:      9
  WF centre and spread    1  (  0.000779,  1.875621,  2.657844 )     8.25548367
  WF centre and spread    2  (  1.623945,  0.938485,  0.054710 )     8.25482475
  Sum of centres and spreads (  1.624725,  2.814106,  2.712553 )    16.51030842
 
      9    -0.518E-04     0.0091037009       16.5103084169       0.02  <-- CONV
        O_D=      4.3579548 O_OD=      2.8909104 O_TOT=     16.5103084 <-- SPRD
 Delta: O_D=  0.3584799E-02 O_OD= -0.3636594E-02 O_TOT= -0.5179428E-04 <-- DLTA
 ------------------------------------------------------------------------------
 Cycle:     10
  WF centre and spread    1  (  0.000831,  1.875591,  2.657901 )     8.25555353
  WF centre and spread    2  (  1.623894,  0.938515,  0.054728 )     8.25473665
  Sum of centres and spreads (  1.624725,  2.814106,  2.712629 )    16.51029017
 
     10    -0.182E-04     0.0057377066       16.5102901741       0.02  <-- CONV
        O_D=      4.3607947 O_OD=      2.8880522 O_TOT=     16.5102902 <-- SPRD
 Delta: O_D=  0.2839932E-02 O_OD= -0.2858175E-02 O_TOT= -0.1824282E-04 <-- DLTA
 ------------------------------------------------------------------------------
 Cycle:     11
  WF centre and spread    1  (  0.000876,  1.875565,  2.657932 )     8.25562911
  WF centre and spread    2  (  1.623848,  0.938541,  0.054721 )     8.25465623
  Sum of centres and spreads (  1.624725,  2.814106,  2.712653 )    16.51028534
 
     11    -0.483E-05     0.0029885161       16.5102853404       0.02  <-- CONV
        O_D=      4.3613615 O_OD=      2.8874806 O_TOT=     16.5102853 <-- SPRD
 Delta: O_D=  0.5668307E-03 O_OD= -0.5716643E-03 O_TOT= -0.4833615E-05 <-- DLTA
 ------------------------------------------------------------------------------
 Cycle:     12
  WF centre and spread    1  (  0.000937,  1.875530,  2.657967 )     8.25574739
  WF centre and spread    2  (  1.623788,  0.938577,  0.054696 )     8.25453657
  Sum of centres and spreads (  1.624725,  2.814106,  2.712663 )    16.51028396
 
     12    -0.138E-05     0.0012830861       16.5102839570       0.02  <-- CONV
        O_D=      4.3612066 O_OD=      2.8876341 O_TOT=     16.5102840 <-- SPRD
 Delta: O_D= -0.1549351E-03 O_OD=  0.1535516E-03 O_TOT= -0.1383470E-05 <-- DLTA
 ------------------------------------------------------------------------------
 Cycle:     13
  WF centre and spread    1  (  0.000974,  1.875508,  2.657994 )     8.25583584
  WF centre and spread    2  (  1.623750,  0.938598,  0.054680 )     8.25444766
  Sum of centres and spreads (  1.624724,  2.814106,  2.712674 )    16.51028350
 
     13    -0.458E-06     0.0008167610       16.5102834990       0.02  <-- CONV
        O_D=      4.3611099 O_OD=      2.8877303 O_TOT=     16.5102835 <-- SPRD
 Delta: O_D= -0.9666261E-04 O_OD=  0.9620465E-04 O_TOT= -0.4579583E-06 <-- DLTA
 ------------------------------------------------------------------------------
 Cycle:     14
  WF centre and spread    1  (  0.001123,  1.875422,  2.658101 )     8.25621393
  WF centre and spread    2  (  1.623601,  0.938684,  0.054600 )     8.25406893
  Sum of centres and spreads (  1.624724,  2.814106,  2.712701 )    16.51028286
 
     14    -0.642E-06     0.0005948757       16.5102828567       0.02  <-- CONV
        O_D=      4.3610172 O_OD=      2.8878224 O_TOT=     16.5102829 <-- SPRD
 Delta: O_D= -0.9274322E-04 O_OD=  0.9210092E-04 O_TOT= -0.6422993E-06 <-- DLTA
 ------------------------------------------------------------------------------
 Cycle:     15
  WF centre and spread    1  (  0.001347,  1.875293,  2.658271 )     8.25685126
  WF centre and spread    2  (  1.623376,  0.938814,  0.054454 )     8.25343085
  Sum of centres and spreads (  1.624724,  2.814107,  2.712726 )    16.51028211
 
     15    -0.745E-06     0.0008340505       16.5102821112       0.02  <-- CONV
        O_D=      4.3609602 O_OD=      2.8878787 O_TOT=     16.5102821 <-- SPRD
 Delta: O_D= -0.5698359E-04 O_OD=  0.5623810E-04 O_TOT= -0.7454949E-06 <-- DLTA
 ------------------------------------------------------------------------------
 Cycle:     16
  WF centre and spread    1  (  0.001790,  1.875037,  2.658642 )     8.25831528
  WF centre and spread    2  (  1.622932,  0.939071,  0.054101 )     8.25196555
  Sum of centres and spreads (  1.624722,  2.814108,  2.712743 )    16.51028083
 
     16    -0.129E-05     0.0009601171       16.5102808262       0.02  <-- CONV
        O_D=      4.3611807 O_OD=      2.8876569 O_TOT=     16.5102808 <-- SPRD
 Delta: O_D=  0.2204898E-03 O_OD= -0.2217749E-03 O_TOT= -0.1285040E-05 <-- DLTA
 ------------------------------------------------------------------------------
 Cycle:     17
  WF centre and spread    1  (  0.009088,  1.870824,  2.665333 )     8.28508046
  WF centre and spread    2  (  1.615575,  0.943318,  0.047606 )     8.22517883
  Sum of centres and spreads (  1.624662,  2.814142,  2.712940 )    16.51025929
 
     17    -0.215E-04     0.0016374753       16.5102592880       0.02  <-- CONV
        O_D=      4.3636569 O_OD=      2.8851591 O_TOT=     16.5102593 <-- SPRD
 Delta: O_D=  0.2476225E-02 O_OD= -0.2497763E-02 O_TOT= -0.2153820E-04 <-- DLTA
 ------------------------------------------------------------------------------
 Cycle:     18
  WF centre and spread    1  (  0.008961,  1.870897,  2.665866 )     8.28716262
  WF centre and spread    2  (  1.615711,  0.943240,  0.047060 )     8.22303904
  Sum of centres and spreads (  1.624672,  2.814137,  2.712926 )    16.51020166
 
     18    -0.576E-04     0.0098827448       16.5102016603       0.02  <-- CONV
        O_D=      4.3612749 O_OD=      2.8874835 O_TOT=     16.5102017 <-- SPRD
 Delta: O_D= -0.2382006E-02 O_OD=  0.2324379E-02 O_TOT= -0.5762765E-04 <-- DLTA
 ------------------------------------------------------------------------------
 Cycle:     19
  WF centre and spread    1  (  0.008538,  1.871141,  2.667564 )     8.29415114
  WF centre and spread    2  (  1.616092,  0.943020,  0.045224 )     8.21598481
  Sum of centres and spreads (  1.624630,  2.814161,  2.712788 )    16.51013595
 
     19    -0.657E-04     0.0074688426       16.5101359497       0.02  <-- CONV
        O_D=      4.3590327 O_OD=      2.8896600 O_TOT=     16.5101359 <-- SPRD
 Delta: O_D= -0.2242252E-02 O_OD=  0.2176541E-02 O_TOT= -0.6571060E-04 <-- DLTA
 ------------------------------------------------------------------------------
 Cycle:     20
  WF centre and spread    1  (  0.006041,  1.872583,  2.678994 )     8.34075604
  WF centre and spread    2  (  1.618392,  0.941691,  0.033117 )     8.16908343
  Sum of centres and spreads (  1.624433,  2.814274,  2.712111 )    16.50983946
 
     20    -0.296E-03     0.0096497074       16.5098394609       0.02  <-- CONV
        O_D=      4.3549164 O_OD=      2.8934798 O_TOT=     16.5098395 <-- SPRD
 Delta: O_D= -0.4116216E-02 O_OD=  0.3819727E-02 O_TOT= -0.2964889E-03 <-- DLTA
 ------------------------------------------------------------------------------
 Cycle:     21
  WF centre and spread    1  (  0.005956,  1.872632,  2.680121 )     8.34474012
  WF centre and spread    2  (  1.618360,  0.941710,  0.032167 )     8.16458291
  Sum of centres and spreads (  1.624317,  2.814342,  2.712288 )    16.50932303
 
     21    -0.516E-03     0.0355675208       16.5093230283       0.02  <-- CONV
        O_D=      4.3537213 O_OD=      2.8941585 O_TOT=     16.5093230 <-- SPRD
 Delta: O_D= -0.1195184E-02 O_OD=  0.6787510E-03 O_TOT= -0.5164326E-03 <-- DLTA
 ------------------------------------------------------------------------------
 Cycle:     22
  WF centre and spread    1  (  0.005775,  1.872737,  2.684137 )     8.36076129
  WF centre and spread    2  (  1.618419,  0.941676,  0.028382 )     8.14809434
  Sum of centres and spreads (  1.624194,  2.814413,  2.712519 )    16.50885563
 
     22    -0.467E-03     0.0202715061       16.5088556301       0.03  <-- CONV
        O_D=      4.3561831 O_OD=      2.8912293 O_TOT=     16.5088556 <-- SPRD
 Delta: O_D=  0.2461869E-02 O_OD= -0.2929267E-02 O_TOT= -0.4673982E-03 <-- DLTA
 ------------------------------------------------------------------------------
 Cycle:     23
  WF centre and spread    1  (  0.005053,  1.873153,  2.699209 )     8.42169647
  WF centre and spread    2  (  1.618709,  0.941508,  0.014066 )     8.08609670
  Sum of centres and spreads (  1.623763,  2.814662,  2.713275 )    16.50779317
 
     23    -0.106E-02     0.0241615136       16.5077931729       0.03  <-- CONV
        O_D=      4.3581946 O_OD=      2.8881553 O_TOT=     16.5077932 <-- SPRD
 Delta: O_D=  0.2011494E-02 O_OD= -0.3073951E-02 O_TOT= -0.1062457E-02 <-- DLTA
 ------------------------------------------------------------------------------
 Cycle:     24
  WF centre and spread    1  (  0.004921,  1.873229,  2.702058 )     8.43047258
  WF centre and spread    2  (  1.618775,  0.941471,  0.011504 )     8.07586477
  Sum of centres and spreads (  1.623696,  2.814700,  2.713562 )    16.50633735
 
     24    -0.146E-02     0.0524591911       16.5063373535       0.03  <-- CONV
        O_D=      4.3490255 O_OD=      2.8958686 O_TOT=     16.5063374 <-- SPRD
 Delta: O_D= -0.9169104E-02 O_OD=  0.7713284E-02 O_TOT= -0.1455819E-02 <-- DLTA
 ------------------------------------------------------------------------------
 Cycle:     25
  WF centre and spread    1  (  0.004587,  1.873423,  2.711090 )     8.46403175
  WF centre and spread    2  (  1.618955,  0.941367,  0.002446 )     8.04073409
  Sum of centres and spreads (  1.623542,  2.814789,  2.713535 )    16.50476584
 
     25    -0.157E-02     0.0363669007       16.5047658441       0.03  <-- CONV
        O_D=      4.3407493 O_OD=      2.9025733 O_TOT=     16.5047658 <-- SPRD
 Delta: O_D= -0.8276251E-02 O_OD=  0.6704742E-02 O_TOT= -0.1571509E-02 <-- DLTA
 ------------------------------------------------------------------------------
 Cycle:     26
  WF centre and spread    1  (  0.003320,  1.874154,  2.749853 )     8.61147119
  WF centre and spread    2  (  1.619241,  0.941201, -0.037063 )     7.88934031
  Sum of centres and spreads (  1.622561,  2.815355,  2.712790 )    16.50081150
 
     26    -0.395E-02     0.0438739646       16.5008114976       0.03  <-- CONV
        O_D=      4.3161210 O_OD=      2.9232472 O_TOT=     16.5008115 <-- SPRD
 Delta: O_D= -0.2462824E-01 O_OD=  0.2067389E-01 O_TOT= -0.3954347E-02 <-- DLTA
 ------------------------------------------------------------------------------
 Cycle:     27
  WF centre and spread    1  (  0.003261,  1.874188,  2.753513 )     8.62048567
  WF centre and spread    2  (  1.619042,  0.941316, -0.040219 )     7.87397006
  Sum of centres and spreads (  1.622303,  2.815504,  2.713294 )    16.49445573
 
     27    -0.636E-02     0.1284713594       16.4944557259       0.03  <-- CONV
        O_D=      4.3018767 O_OD=      2.9311357 O_TOT=     16.4944557 <-- SPRD
 Delta: O_D= -0.1424429E-01 O_OD=  0.7888517E-02 O_TOT= -0.6355772E-02 <-- DLTA
 ------------------------------------------------------------------------------
 Cycle:     28
  WF centre and spread    1  (  0.003187,  1.874230,  2.763812 )     8.65887712
  WF centre and spread    2  (  1.618664,  0.941534, -0.050329 )     7.83140731
  Sum of centres and spreads (  1.621852,  2.815765,  2.713483 )    16.49028443
 
     28    -0.417E-02     0.0660250197       16.4902844304       0.03  <-- CONV
        O_D=      4.2897961 O_OD=      2.9390450 O_TOT=     16.4902844 <-- SPRD
 Delta: O_D= -0.1208060E-01 O_OD=  0.7909301E-02 O_TOT= -0.4171296E-02 <-- DLTA
 ------------------------------------------------------------------------------
 Cycle:     29
  WF centre and spread    1  (  0.002836,  1.874433,  2.783233 )     8.73236284
  WF centre and spread    2  (  1.618140,  0.941837, -0.069387 )     7.75410336
  Sum of centres and spreads (  1.620977,  2.816270,  2.713846 )    16.48646620
 
     29    -0.382E-02     0.0611826148       16.4864661973       0.03  <-- CONV
        O_D=      4.2735521 O_OD=      2.9514708 O_TOT=     16.4864662 <-- SPRD
 Delta: O_D= -0.1624402E-01 O_OD=  0.1242579E-01 O_TOT= -0.3818233E-02 <-- DLTA
 ------------------------------------------------------------------------------
 Cycle:     30
  WF centre and spread    1  ( -0.001218,  1.876774,  2.902786 )     9.11206784
  WF centre and spread    2  (  1.615768,  0.943206, -0.180681 )     7.38101641
  Sum of centres and spreads (  1.614550,  2.819981,  2.722105 )    16.49308425
 
     30     0.662E-02     0.0800084362       16.4930842501       0.03  <-- CONV
        O_D=      4.1225781 O_OD=      3.1090629 O_TOT=     16.4930843 <-- SPRD
 Delta: O_D= -0.1509741E+00 O_OD=  0.1575921E+00 O_TOT=  0.6618053E-02 <-- DLTA
 ------------------------------------------------------------------------------
 Cycle:     31
  WF centre and spread    1  ( -0.000476,  1.876346,  2.900419 )     9.12108322
  WF centre and spread    2  (  1.615873,  0.943146, -0.179706 )     7.35807932
  Sum of centres and spreads (  1.615397,  2.819491,  2.720714 )    16.47916255
 
     31    -0.139E-01     0.1454493543       16.4791625475       0.03  <-- CONV
        O_D=      4.1549334 O_OD=      3.0627859 O_TOT=     16.4791625 <-- SPRD
 Delta: O_D=  0.3235537E-01 O_OD= -0.4627707E-01 O_TOT= -0.1392170E-01 <-- DLTA
 ------------------------------------------------------------------------------
 Cycle:     32
  WF centre and spread    1  ( -0.000176,  1.876173,  2.891830 )     9.06346520
  WF centre and spread    2  (  1.616407,  0.942837, -0.172756 )     7.40954017
  Sum of centres and spreads (  1.616232,  2.819010,  2.719074 )    16.47300536
 
     32    -0.616E-02     0.0808817142       16.4730053639       0.03  <-- CONV
        O_D=      4.1680377 O_OD=      3.0435244 O_TOT=     16.4730054 <-- SPRD
 Delta: O_D=  0.1310427E-01 O_OD= -0.1926145E-01 O_TOT= -0.6157184E-02 <-- DLTA
 ------------------------------------------------------------------------------
 Cycle:     33
  WF centre and spread    1  ( -0.000401,  1.876304,  2.889990 )     9.04788593
  WF centre and spread    2  (  1.616061,  0.943037, -0.171987 )     7.42336129
  Sum of centres and spreads (  1.615660,  2.819341,  2.718002 )    16.47124722
 
     33    -0.176E-02     0.0607988713       16.4712472185       0.03  <-- CONV
        O_D=      4.1668674 O_OD=      3.0429366 O_TOT=     16.4712472 <-- SPRD
 Delta: O_D= -0.1170290E-02 O_OD= -0.5878557E-03 O_TOT= -0.1758145E-02 <-- DLTA
 ------------------------------------------------------------------------------
 Cycle:     34
  WF centre and spread    1  ( -0.000134,  1.876152,  2.887084 )     9.03051594
  WF centre and spread    2  (  1.616072,  0.943030, -0.169929 )     7.44002647
  Sum of centres and spreads (  1.615938,  2.819182,  2.717155 )    16.47054241
 
     34    -0.705E-03     0.0323121927       16.4705424065       0.03  <-- CONV
        O_D=      4.1591787 O_OD=      3.0499204 O_TOT=     16.4705424 <-- SPRD
 Delta: O_D= -0.7688652E-02 O_OD=  0.6983840E-02 O_TOT= -0.7048120E-03 <-- DLTA
 ------------------------------------------------------------------------------
 Cycle:     35
  WF centre and spread    1  ( -0.000290,  1.876245,  2.884198 )     9.01849668
  WF centre and spread    2  (  1.615679,  0.943256, -0.167518 )     7.45178067
  Sum of centres and spreads (  1.615389,  2.819501,  2.716680 )    16.47027735
 
     35    -0.265E-03     0.0218269017       16.4702773477       0.03  <-- CONV
        O_D=      4.1551827 O_OD=      3.0536514 O_TOT=     16.4702773 <-- SPRD
 Delta: O_D= -0.3996031E-02 O_OD=  0.3730973E-02 O_TOT= -0.2650588E-03 <-- DLTA
 ------------------------------------------------------------------------------
 Cycle:     36
  WF centre and spread    1  ( -0.000127,  1.876159,  2.881450 )     9.01428634
  WF centre and spread    2  (  1.615481,  0.943367, -0.165200 )     7.45580636
  Sum of centres and spreads (  1.615354,  2.819526,  2.716249 )    16.47009269
 
     36    -0.185E-03     0.0146463353       16.4700926941       0.04  <-- CONV
        O_D=      4.1562965 O_OD=      3.0523529 O_TOT=     16.4700927 <-- SPRD
 Delta: O_D=  0.1113779E-02 O_OD= -0.1298433E-02 O_TOT= -0.1846536E-03 <-- DLTA
 ------------------------------------------------------------------------------
 Cycle:     37
  WF centre and spread    1  ( -0.000226,  1.876226,  2.880709 )     9.01210971
  WF centre and spread    2  (  1.615225,  0.943513, -0.164304 )     7.45783724
  Sum of centres and spreads (  1.614999,  2.819739,  2.716405 )    16.46994695
 
     37    -0.146E-03     0.0154866279       16.4699469463       0.04  <-- CONV
        O_D=      4.1585940 O_OD=      3.0499097 O_TOT=     16.4699469 <-- SPRD
 Delta: O_D=  0.2297535E-02 O_OD= -0.2443283E-02 O_TOT= -0.1457479E-03 <-- DLTA
 ------------------------------------------------------------------------------
 Cycle:     38
  WF centre and spread    1  (  0.001204,  1.876081,  2.867457 )     8.98552878
  WF centre and spread    2  (  1.612732,  0.944780, -0.148498 )     7.48277897
  Sum of centres and spreads (  1.613936,  2.820861,  2.718959 )    16.46830775
 
     38    -0.164E-02     0.0160343374       16.4683077502       0.04  <-- CONV
        O_D=      4.1934443 O_OD=      3.0134202 O_TOT=     16.4683078 <-- SPRD
 Delta: O_D=  0.3485029E-01 O_OD= -0.3648949E-01 O_TOT= -0.1639196E-02 <-- DLTA
 ------------------------------------------------------------------------------
 Cycle:     39
  WF centre and spread    1  (  0.000547,  1.876795,  2.868585 )     8.98806627
  WF centre and spread    2  (  1.610727,  0.945796, -0.150131 )     7.47249472
  Sum of centres and spreads (  1.611274,  2.822591,  2.718454 )    16.46056099
 
     39    -0.775E-02     0.1335898236       16.4605609901       0.04  <-- CONV
        O_D=      4.1749979 O_OD=      3.0241198 O_TOT=     16.4605610 <-- SPRD
 Delta: O_D= -0.1844640E-01 O_OD=  0.1069964E-01 O_TOT= -0.7746760E-02 <-- DLTA
 ------------------------------------------------------------------------------
 Cycle:     40
  WF centre and spread    1  (  0.008646,  1.874294,  2.868967 )     8.97077913
  WF centre and spread    2  (  1.609031,  0.945334, -0.150853 )     7.47879746
  Sum of centres and spreads (  1.617677,  2.819627,  2.718113 )    16.44957659
 
     40    -0.110E-01     0.1069692535       16.4495765857       0.04  <-- CONV
        O_D=      4.1084518 O_OD=      3.0796815 O_TOT=     16.4495766 <-- SPRD
 Delta: O_D= -0.6654609E-01 O_OD=  0.5556169E-01 O_TOT= -0.1098440E-01 <-- DLTA
 ------------------------------------------------------------------------------
 Cycle:     41
  WF centre and spread    1  (  0.005491,  1.877526,  2.877164 )     8.99062464
  WF centre and spread    2  (  1.603861,  0.948121, -0.158564 )     7.43862385
  Sum of centres and spreads (  1.609352,  2.825647,  2.718600 )    16.42924849
 
     41    -0.203E-01     0.3084036547       16.4292484906       0.04  <-- CONV
        O_D=      4.0998359 O_OD=      3.0679693 O_TOT=     16.4292485 <-- SPRD
 Delta: O_D= -0.8615918E-02 O_OD= -0.1171218E-01 O_TOT= -0.2032810E-01 <-- DLTA
 ------------------------------------------------------------------------------
 Cycle:     42
  WF centre and spread    1  (  0.031464,  1.869888,  2.881481 )     9.06547598
  WF centre and spread    2  (  1.589359,  0.950947, -0.147091 )     7.48170518
  Sum of centres and spreads (  1.620824,  2.820835,  2.734390 )    16.54718116
 
     42     0.118E+00     0.2681888191       16.5471811578       0.04  <-- CONV
        O_D=      4.1962551 O_OD=      3.0894828 O_TOT=     16.5471812 <-- SPRD
 Delta: O_D=  0.9641916E-01 O_OD=  0.2151351E-01 O_TOT=  0.1179327E+00 <-- DLTA
 ------------------------------------------------------------------------------
 Cycle:     43
  WF centre and spread    1  (  0.025705,  1.869095,  2.865148 )     8.92476083
  WF centre and spread    2  (  1.600809,  0.942524, -0.137834 )     7.50978371
  Sum of centres and spreads (  1.626514,  2.811620,  2.727315 )    16.43454454
 
     43    -0.113E+00     0.8827451235       16.4345445365       0.04  <-- CONV
        O_D=      4.1164234 O_OD=      3.0566779 O_TOT=     16.4345445 <-- SPRD
 Delta: O_D= -0.7983166E-01 O_OD= -0.3280496E-01 O_TOT= -0.1126366E+00 <-- DLTA
 ------------------------------------------------------------------------------
 Cycle:     44
  WF centre and spread    1  (  0.018150,  1.871277,  2.873807 )     8.93954107
  WF centre and spread    2  (  1.599502,  0.942555, -0.149831 )     7.43872970
  Sum of centres and spreads (  1.617652,  2.813832,  2.723976 )    16.37827076
 
     44    -0.563E-01     0.7101079767       16.3782707613       0.04  <-- CONV
        O_D=      4.0765863 O_OD=      3.0402412 O_TOT=     16.3782708 <-- SPRD
 Delta: O_D= -0.3983711E-01 O_OD= -0.1643666E-01 O_TOT= -0.5627378E-01 <-- DLTA
 ------------------------------------------------------------------------------
 Cycle:     45
  WF centre and spread    1  (  0.013212,  1.876722,  2.876838 )     8.95064548
  WF centre and spread    2  (  1.594526,  0.945401, -0.153065 )     7.41056866
  Sum of centres and spreads (  1.607737,  2.822123,  2.723773 )    16.36121415
 
     45    -0.171E-01     0.3039238697       16.3612141474       0.04  <-- CONV
        O_D=      4.0581221 O_OD=      3.0416488 O_TOT=     16.3612141 <-- SPRD
 Delta: O_D= -0.1846419E-01 O_OD=  0.1407573E-02 O_TOT= -0.1705661E-01 <-- DLTA
 ------------------------------------------------------------------------------
 Cycle:     46
  WF centre and spread    1  (  0.012858,  1.879468,  2.872182 )     8.93431173
  WF centre and spread    2  (  1.589532,  0.945596, -0.145670 )     7.41013413
  Sum of centres and spreads (  1.602390,  2.825065,  2.726512 )    16.34444586
 
     46    -0.168E-01     0.3378341918       16.3444458600       0.04  <-- CONV
        O_D=      4.0242588 O_OD=      3.0587438 O_TOT=     16.3444459 <-- SPRD
 Delta: O_D= -0.3386331E-01 O_OD=  0.1709503E-01 O_TOT= -0.1676829E-01 <-- DLTA
 ------------------------------------------------------------------------------
 Cycle:     47
  WF centre and spread    1  (  0.011313,  1.879177,  2.869610 )     8.92783610
  WF centre and spread    2  (  1.588942,  0.942532, -0.141444 )     7.40975048
  Sum of centres and spreads (  1.600255,  2.821709,  2.728166 )    16.33758658
 
     47    -0.686E-02     0.3584742934       16.3375865839       0.04  <-- CONV
        O_D=      4.0085391 O_OD=      3.0676042 O_TOT=     16.3375866 <-- SPRD
 Delta: O_D= -0.1571968E-01 O_OD=  0.8860407E-02 O_TOT= -0.6859276E-02 <-- DLTA
 ------------------------------------------------------------------------------
 Cycle:     48
  WF centre and spread    1  (  0.006803,  1.879606,  2.871717 )     8.93454238
  WF centre and spread    2  (  1.589176,  0.939222, -0.143135 )     7.39591680
  Sum of centres and spreads (  1.595979,  2.818828,  2.728582 )    16.33045918
 
     48    -0.713E-02     0.3388320813       16.3304591768       0.04  <-- CONV
        O_D=      3.9978895 O_OD=      3.0711264 O_TOT=     16.3304592 <-- SPRD
 Delta: O_D= -0.1064960E-01 O_OD=  0.3522190E-02 O_TOT= -0.7127407E-02 <-- DLTA
 ------------------------------------------------------------------------------
 Cycle:     49
  WF centre and spread    1  (  0.010954,  1.874651,  2.876973 )     8.94276938
  WF centre and spread    2  (  1.587834,  0.941846, -0.148231 )     7.37351479
  Sum of centres and spreads (  1.598788,  2.816497,  2.728742 )    16.31628417
 
     49    -0.142E-01     0.3379124666       16.3162841721       0.04  <-- CONV
        O_D=      3.9907454 O_OD=      3.0640955 O_TOT=     16.3162842 <-- SPRD
 Delta: O_D= -0.7144075E-02 O_OD= -0.7030929E-02 O_TOT= -0.1417500E-01 <-- DLTA
 ------------------------------------------------------------------------------
 Cycle:     50
  WF centre and spread    1  (  0.008576,  1.875197,  2.875007 )     8.92821340
  WF centre and spread    2  (  1.589828,  0.941349, -0.146210 )     7.37933902
  Sum of centres and spreads (  1.598404,  2.816546,  2.728797 )    16.30755242
 
     50    -0.873E-02     0.3117223713       16.3075524235       0.04  <-- CONV
        O_D=      3.9857788 O_OD=      3.0603304 O_TOT=     16.3075524 <-- SPRD
 Delta: O_D= -0.4966622E-02 O_OD= -0.3765127E-02 O_TOT= -0.8731749E-02 <-- DLTA
 ------------------------------------------------------------------------------
 Cycle:     51
  WF centre and spread    1  (  0.010613,  1.869319,  2.870746 )     8.90124380
  WF centre and spread    2  (  1.592380,  0.939480, -0.140149 )     7.39511301
  Sum of centres and spreads (  1.602994,  2.808799,  2.730597 )    16.29635680
 
     51    -0.112E-01     0.3394234285       16.2963568034       0.05  <-- CONV
        O_D=      3.9759693 O_OD=      3.0589442 O_TOT=     16.2963568 <-- SPRD
 Delta: O_D= -0.9809510E-02 O_OD= -0.1386110E-02 O_TOT= -0.1119562E-01 <-- DLTA
 ------------------------------------------------------------------------------
 Cycle:     52
  WF centre and spread    1  (  0.008424,  1.867008,  2.875172 )     8.91556004
  WF centre and spread    2  (  1.593439,  0.937095, -0.142110 )     7.37554900
  Sum of centres and spreads (  1.601863,  2.804103,  2.733062 )    16.29110904
 
     52    -0.525E-02     0.1606282347       16.2911090404       0.05  <-- CONV
        O_D=      3.9729120 O_OD=      3.0567538 O_TOT=     16.2911090 <-- SPRD
 Delta: O_D= -0.3057318E-02 O_OD= -0.2190445E-02 O_TOT= -0.5247763E-02 <-- DLTA
 ------------------------------------------------------------------------------
 Cycle:     53
  WF centre and spread    1  (  0.007551,  1.865915,  2.875306 )     8.91631649
  WF centre and spread    2  (  1.594451,  0.936559, -0.141646 )     7.37382824
  Sum of centres and spreads (  1.602002,  2.802474,  2.733660 )    16.29014472
 
     53    -0.964E-03     0.2504203053       16.2901447246       0.05  <-- CONV
        O_D=      3.9733259 O_OD=      3.0553756 O_TOT=     16.2901447 <-- SPRD
 Delta: O_D=  0.4138851E-03 O_OD= -0.1378201E-02 O_TOT= -0.9643158E-03 <-- DLTA
 ------------------------------------------------------------------------------
 Cycle:     54
  WF centre and spread    1  (  0.007228,  1.862757,  2.871615 )     8.90080037
  WF centre and spread    2  (  1.596848,  0.936386, -0.137454 )     7.38432390
  Sum of centres and spreads (  1.604077,  2.799143,  2.734161 )    16.28512427
 
     54    -0.502E-02     0.2918635084       16.2851242709       0.05  <-- CONV
        O_D=      3.9713113 O_OD=      3.0523697 O_TOT=     16.2851243 <-- SPRD
 Delta: O_D= -0.2014535E-02 O_OD= -0.3005919E-02 O_TOT= -0.5020454E-02 <-- DLTA
 ------------------------------------------------------------------------------
 Cycle:     55
  WF centre and spread    1  (  0.011792,  1.861987,  2.868679 )     8.88606694
  WF centre and spread    2  (  1.595942,  0.936561, -0.134573 )     7.39352322
  Sum of centres and spreads (  1.607734,  2.798549,  2.734106 )    16.27959016
 
     55    -0.553E-02     0.3175974057       16.2795901630       0.05  <-- CONV
        O_D=      3.9663716 O_OD=      3.0517753 O_TOT=     16.2795902 <-- SPRD
 Delta: O_D= -0.4939777E-02 O_OD= -0.5943310E-03 O_TOT= -0.5534108E-02 <-- DLTA
 ------------------------------------------------------------------------------
 Cycle:     56
  WF centre and spread    1  (  0.011035,  1.863179,  2.864790 )     8.87339957
  WF centre and spread    2  (  1.596194,  0.936879, -0.131208 )     7.40387981
  Sum of centres and spreads (  1.607229,  2.800058,  2.733582 )    16.27727938
 
     56    -0.231E-02     0.1123486438       16.2772793831       0.05  <-- CONV
        O_D=      3.9653221 O_OD=      3.0505140 O_TOT=     16.2772794 <-- SPRD
 Delta: O_D= -0.1049455E-02 O_OD= -0.1261325E-02 O_TOT= -0.2310780E-02 <-- DLTA
 ------------------------------------------------------------------------------
 Cycle:     57
  WF centre and spread    1  (  0.010251,  1.860773,  2.863159 )     8.87035799
  WF centre and spread    2  (  1.596115,  0.936750, -0.128995 )     7.40456468
  Sum of centres and spreads (  1.606366,  2.797523,  2.734164 )    16.27492268
 
     57    -0.236E-02     0.1357995770       16.2749226758       0.05  <-- CONV
        O_D=      3.9641442 O_OD=      3.0493352 O_TOT=     16.2749227 <-- SPRD
 Delta: O_D= -0.1177867E-02 O_OD= -0.1178840E-02 O_TOT= -0.2356707E-02 <-- DLTA
 ------------------------------------------------------------------------------
 Cycle:     58
  WF centre and spread    1  (  0.009095,  1.862719,  2.864705 )     8.87777138
  WF centre and spread    2  (  1.596685,  0.935974, -0.130547 )     7.39613646
  Sum of centres and spreads (  1.605780,  2.798693,  2.734158 )    16.27390783
 
     58    -0.101E-02     0.1046778937       16.2739078348       0.05  <-- CONV
        O_D=      3.9645580 O_OD=      3.0479066 O_TOT=     16.2739078 <-- SPRD
 Delta: O_D=  0.4137094E-03 O_OD= -0.1428550E-02 O_TOT= -0.1014841E-02 <-- DLTA
 ------------------------------------------------------------------------------
 Cycle:     59
  WF centre and spread    1  (  0.010336,  1.862066,  2.864895 )     8.87896841
  WF centre and spread    2  (  1.596917,  0.935556, -0.130459 )     7.39449292
  Sum of centres and spreads (  1.607254,  2.797622,  2.734436 )    16.27346133
 
     59    -0.447E-03     0.0864936931       16.2734613309       0.05  <-- CONV
        O_D=      3.9648702 O_OD=      3.0471479 O_TOT=     16.2734613 <-- SPRD
 Delta: O_D=  0.3122128E-03 O_OD= -0.7587166E-03 O_TOT= -0.4465039E-03 <-- DLTA
 ------------------------------------------------------------------------------
 Cycle:     60
  WF centre and spread    1  (  0.012445,  1.860829,  2.859463 )     8.85970109
  WF centre and spread    2  (  1.599427,  0.934331, -0.124402 )     7.41181348
  Sum of centres and spreads (  1.611872,  2.795160,  2.735061 )    16.27151457
 
     60    -0.195E-02     0.0823275279       16.2715145717       0.05  <-- CONV
        O_D=      3.9655032 O_OD=      3.0445681 O_TOT=     16.2715146 <-- SPRD
 Delta: O_D=  0.6330647E-03 O_OD= -0.2579824E-02 O_TOT= -0.1946759E-02 <-- DLTA
 ------------------------------------------------------------------------------
 Cycle:     61
  WF centre and spread    1  (  0.011981,  1.858770,  2.859645 )     8.85982010
  WF centre and spread    2  (  1.599321,  0.934510, -0.124259 )     7.41102485
  Sum of centres and spreads (  1.611301,  2.793280,  2.735385 )    16.27084495
 
     61    -0.670E-03     0.1265585511       16.2708449542       0.05  <-- CONV
        O_D=      3.9648950 O_OD=      3.0445067 O_TOT=     16.2708450 <-- SPRD
 Delta: O_D= -0.6082631E-03 O_OD= -0.6135443E-04 O_TOT= -0.6696175E-03 <-- DLTA
 ------------------------------------------------------------------------------
 Cycle:     62
  WF centre and spread    1  (  0.011204,  1.859089,  2.859639 )     8.85975955
  WF centre and spread    2  (  1.599442,  0.934584, -0.124347 )     7.41091256
  Sum of centres and spreads (  1.610646,  2.793673,  2.735292 )    16.27067211
 
     62    -0.173E-03     0.0597668232       16.2706721127       0.05  <-- CONV
        O_D=      3.9650396 O_OD=      3.0441892 O_TOT=     16.2706721 <-- SPRD
 Delta: O_D=  0.1446687E-03 O_OD= -0.3175101E-03 O_TOT= -0.1728414E-03 <-- DLTA
 ------------------------------------------------------------------------------
 Cycle:     63
  WF centre and spread    1  (  0.011646,  1.858828,  2.859085 )     8.85768383
  WF centre and spread    2  (  1.599550,  0.934547, -0.123955 )     7.41263980
  Sum of centres and spreads (  1.611197,  2.793375,  2.735130 )    16.27032363
 
     63    -0.348E-03     0.0481764792       16.2703236312       0.05  <-- CONV
        O_D=      3.9660763 O_OD=      3.0428041 O_TOT=     16.2703236 <-- SPRD
 Delta: O_D=  0.1036691E-02 O_OD= -0.1385173E-02 O_TOT= -0.3484815E-03 <-- DLTA
 ------------------------------------------------------------------------------
 Cycle:     64
  WF centre and spread    1  (  0.011261,  1.858476,  2.856892 )     8.84971414
  WF centre and spread    2  (  1.600273,  0.933762, -0.121714 )     7.42022854
  Sum of centres and spreads (  1.611533,  2.792238,  2.735179 )    16.26994268
 
     64    -0.381E-03     0.0529910740       16.2699426840       0.05  <-- CONV
        O_D=      3.9670898 O_OD=      3.0414097 O_TOT=     16.2699427 <-- SPRD
 Delta: O_D=  0.1013424E-02 O_OD= -0.1394371E-02 O_TOT= -0.3809472E-03 <-- DLTA
 ------------------------------------------------------------------------------
 Cycle:     65
  WF centre and spread    1  (  0.011904,  1.858036,  2.856298 )     8.84775616
  WF centre and spread    2  (  1.600416,  0.933424, -0.120988 )     7.42205579
  Sum of centres and spreads (  1.612319,  2.791459,  2.735311 )    16.26981195
 
     65    -0.131E-03     0.0344727842       16.2698119514       0.06  <-- CONV
        O_D=      3.9677580 O_OD=      3.0406107 O_TOT=     16.2698120 <-- SPRD
 Delta: O_D=  0.6682357E-03 O_OD= -0.7989684E-03 O_TOT= -0.1307326E-03 <-- DLTA
 ------------------------------------------------------------------------------
 Cycle:     66
  WF centre and spread    1  (  0.012218,  1.858805,  2.854352 )     8.84144042
  WF centre and spread    2  (  1.601396,  0.932570, -0.119009 )     7.42802415
  Sum of centres and spreads (  1.613615,  2.791375,  2.735342 )    16.26946457
 
     66    -0.347E-03     0.0494753800       16.2694645672       0.06  <-- CONV
        O_D=      3.9699905 O_OD=      3.0380308 O_TOT=     16.2694646 <-- SPRD
 Delta: O_D=  0.2232505E-02 O_OD= -0.2579889E-02 O_TOT= -0.3473842E-03 <-- DLTA
 ------------------------------------------------------------------------------
 Cycle:     67
  WF centre and spread    1  (  0.012288,  1.857528,  2.853824 )     8.83954893
  WF centre and spread    2  (  1.601631,  0.932756, -0.118362 )     7.42970668
  Sum of centres and spreads (  1.613920,  2.790284,  2.735462 )    16.26925561
 
     67    -0.209E-03     0.0592518248       16.2692556117       0.06  <-- CONV
        O_D=      3.9697622 O_OD=      3.0380502 O_TOT=     16.2692556 <-- SPRD
 Delta: O_D= -0.2282917E-03 O_OD=  0.1933621E-04 O_TOT= -0.2089555E-03 <-- DLTA
 ------------------------------------------------------------------------------
 Cycle:     68
  WF centre and spread    1  (  0.012011,  1.857784,  2.853341 )     8.83799166
  WF centre and spread    2  (  1.601884,  0.932831, -0.117969 )     7.43117138
  Sum of centres and spreads (  1.613895,  2.790615,  2.735371 )    16.26916304
 
     68    -0.926E-04     0.0387129975       16.2691630373       0.06  <-- CONV
        O_D=      3.9698684 O_OD=      3.0378514 O_TOT=     16.2691630 <-- SPRD
 Delta: O_D=  0.1061600E-03 O_OD= -0.1987344E-03 O_TOT= -0.9257439E-04 <-- DLTA
 ------------------------------------------------------------------------------
 Cycle:     69
  WF centre and spread    1  (  0.012185,  1.857948,  2.852496 )     8.83599431
  WF centre and spread    2  (  1.602013,  0.932635, -0.117102 )     7.43299482
  Sum of centres and spreads (  1.614198,  2.790583,  2.735394 )    16.26898913
 
     69    -0.174E-03     0.0286904606       16.2689891279       0.06  <-- CONV
        O_D=      3.9705970 O_OD=      3.0369489 O_TOT=     16.2689891 <-- SPRD
 Delta: O_D=  0.7286595E-03 O_OD= -0.9025689E-03 O_TOT= -0.1739094E-03 <-- DLTA
 ------------------------------------------------------------------------------
 Cycle:     70
  WF centre and spread    1  (  0.011645,  1.857757,  2.852441 )     8.83577310
  WF centre and spread    2  (  1.602132,  0.932508, -0.116977 )     7.43311369
  Sum of centres and spreads (  1.613777,  2.790265,  2.735464 )    16.26888679
 
     70    -0.102E-03     0.0502164718       16.2688867883       0.06  <-- CONV
        O_D=      3.9705115 O_OD=      3.0369320 O_TOT=     16.2688868 <-- SPRD
 Delta: O_D= -0.8551487E-04 O_OD= -0.1682467E-04 O_TOT= -0.1023395E-03 <-- DLTA
 ------------------------------------------------------------------------------
 Cycle:     71
  WF centre and spread    1  (  0.011874,  1.857549,  2.852347 )     8.83560840
  WF centre and spread    2  (  1.602192,  0.932230, -0.116792 )     7.43322703
  Sum of centres and spreads (  1.614066,  2.789779,  2.735555 )    16.26883543
 
     71    -0.514E-04     0.0207460710       16.2688354296       0.06  <-- CONV
        O_D=      3.9707465 O_OD=      3.0366456 O_TOT=     16.2688354 <-- SPRD
 Delta: O_D=  0.2350266E-03 O_OD= -0.2863853E-03 O_TOT= -0.5135869E-04 <-- DLTA
 ------------------------------------------------------------------------------
 Cycle:     72
  WF centre and spread    1  (  0.011964,  1.858291,  2.851802 )     8.83406211
  WF centre and spread    2  (  1.602541,  0.931745, -0.116291 )     7.43468131
  Sum of centres and spreads (  1.614505,  2.790036,  2.735511 )    16.26874343
 
     72    -0.920E-04     0.0289699148       16.2687434256       0.06  <-- CONV
        O_D=      3.9714622 O_OD=      3.0358380 O_TOT=     16.2687434 <-- SPRD
 Delta: O_D=  0.7156251E-03 O_OD= -0.8076291E-03 O_TOT= -0.9200407E-04 <-- DLTA
 ------------------------------------------------------------------------------
 Cycle:     73
  WF centre and spread    1  (  0.013656,  1.856798,  2.838578 )     8.79213257
  WF centre and spread    2  (  1.608880,  0.927087, -0.102504 )     7.47522592
  Sum of centres and spreads (  1.622536,  2.783885,  2.736074 )    16.26735849
 
     73    -0.138E-02     0.0399720366       16.2673584890       0.06  <-- CONV
        O_D=      3.9798542 O_OD=      3.0260611 O_TOT=     16.2673585 <-- SPRD
 Delta: O_D=  0.8391996E-02 O_OD= -0.9776933E-02 O_TOT= -0.1384937E-02 <-- DLTA
 ------------------------------------------------------------------------------
 Cycle:     74
  WF centre and spread    1  (  0.012432,  1.855131,  2.837486 )     8.78783206
  WF centre and spread    2  (  1.608763,  0.926801, -0.101291 )     7.47915542
  Sum of centres and spreads (  1.621195,  2.781932,  2.736194 )    16.26698748
 
     74    -0.371E-03     0.0702352870       16.2669874766       0.06  <-- CONV
        O_D=      3.9793385 O_OD=      3.0262057 O_TOT=     16.2669875 <-- SPRD
 Delta: O_D= -0.5156672E-03 O_OD=  0.1446548E-03 O_TOT= -0.3710125E-03 <-- DLTA
 ------------------------------------------------------------------------------
 Cycle:     75
  WF centre and spread    1  (  0.011176,  1.855688,  2.836650 )     8.78449626
  WF centre and spread    2  (  1.608616,  0.926459, -0.100699 )     7.48222792
  Sum of centres and spreads (  1.619792,  2.782147,  2.735951 )    16.26672418
 
     75    -0.263E-03     0.0585102312       16.2667241786       0.06  <-- CONV
        O_D=      3.9792680 O_OD=      3.0260129 O_TOT=     16.2667242 <-- SPRD
 Delta: O_D= -0.7047974E-04 O_OD= -0.1928182E-03 O_TOT= -0.2632980E-03 <-- DLTA
 ------------------------------------------------------------------------------
 Cycle:     76
  WF centre and spread    1  (  0.011010,  1.855444,  2.836722 )     8.78455017
  WF centre and spread    2  (  1.608469,  0.926295, -0.100814 )     7.48205154
  Sum of centres and spreads (  1.619478,  2.781739,  2.735908 )    16.26660171
 
     76    -0.122E-03     0.0462444563       16.2666017065       0.06  <-- CONV
        O_D=      3.9793787 O_OD=      3.0257798 O_TOT=     16.2666017 <-- SPRD
 Delta: O_D=  0.1106711E-03 O_OD= -0.2331432E-03 O_TOT= -0.1224721E-03 <-- DLTA
 ------------------------------------------------------------------------------
 Cycle:     77
  WF centre and spread    1  (  0.010309,  1.855422,  2.837178 )     8.78593349
  WF centre and spread    2  (  1.608619,  0.926137, -0.101300 )     7.48058180
  Sum of centres and spreads (  1.618928,  2.781559,  2.735878 )    16.26651529
 
     77    -0.864E-04     0.0318273096       16.2665152894       0.06  <-- CONV
        O_D=      3.9796341 O_OD=      3.0254379 O_TOT=     16.2665153 <-- SPRD
 Delta: O_D=  0.2554661E-03 O_OD= -0.3418833E-03 O_TOT= -0.8641718E-04 <-- DLTA
 ------------------------------------------------------------------------------
 Cycle:     78
  WF centre and spread    1  (  0.010537,  1.855939,  2.836679 )     8.78296700
  WF centre and spread    2  (  1.609184,  0.925288, -0.101081 )     7.48337382
  Sum of centres and spreads (  1.619721,  2.781227,  2.735598 )    16.26634082
 
     78    -0.174E-03     0.0213829952       16.2663408242       0.06  <-- CONV
        O_D=      3.9805142 O_OD=      3.0243834 O_TOT=     16.2663408 <-- SPRD
 Delta: O_D=  0.8800459E-03 O_OD= -0.1054511E-02 O_TOT= -0.1744651E-03 <-- DLTA
 ------------------------------------------------------------------------------
 Cycle:     79
  WF centre and spread    1  (  0.010599,  1.855343,  2.836441 )     8.78201945
  WF centre and spread    2  (  1.609133,  0.925294, -0.100725 )     7.48426276
  Sum of centres and spreads (  1.619732,  2.780637,  2.735715 )    16.26628221
 
     79    -0.586E-04     0.0389257661       16.2662822121       0.07  <-- CONV
        O_D=      3.9803693 O_OD=      3.0244696 O_TOT=     16.2662822 <-- SPRD
 Delta: O_D= -0.1448596E-03 O_OD=  0.8624751E-04 O_TOT= -0.5861214E-04 <-- DLTA
 ------------------------------------------------------------------------------
 Cycle:     80
  WF centre and spread    1  (  0.010483,  1.855570,  2.835804 )     8.77960827
  WF centre and spread    2  (  1.609140,  0.925240, -0.100074 )     7.48663027
  Sum of centres and spreads (  1.619624,  2.780810,  2.735730 )    16.26623854
 
     80    -0.437E-04     0.0184494185       16.2662385410       0.07  <-- CONV
        O_D=      3.9803290 O_OD=      3.0244663 O_TOT=     16.2662385 <-- SPRD
 Delta: O_D= -0.4035122E-04 O_OD= -0.3319831E-05 O_TOT= -0.4367105E-04 <-- DLTA
 ------------------------------------------------------------------------------
 Cycle:     81
  WF centre and spread    1  (  0.011004,  1.855597,  2.835230 )     8.77746373
  WF centre and spread    2  (  1.609269,  0.924854, -0.099497 )     7.48869287
  Sum of centres and spreads (  1.620273,  2.780451,  2.735733 )    16.26615660
 
     81    -0.819E-04     0.0207700683       16.2661565970       0.07  <-- CONV
        O_D=      3.9805227 O_OD=      3.0241906 O_TOT=     16.2661566 <-- SPRD
 Delta: O_D=  0.1937470E-03 O_OD= -0.2756910E-03 O_TOT= -0.8194402E-04 <-- DLTA
 ------------------------------------------------------------------------------
 Cycle:     82
  WF centre and spread    1  (  0.010695,  1.855392,  2.834658 )     8.77530739
  WF centre and spread    2  (  1.610020,  0.923732, -0.098883 )     7.49067109
  Sum of centres and spreads (  1.620715,  2.779124,  2.735774 )    16.26597848
 
     82    -0.178E-03     0.0354643015       16.2659784755       0.07  <-- CONV
        O_D=      3.9809331 O_OD=      3.0236021 O_TOT=     16.2659785 <-- SPRD
 Delta: O_D=  0.4103932E-03 O_OD= -0.5885146E-03 O_TOT= -0.1781215E-03 <-- DLTA
 ------------------------------------------------------------------------------
 Cycle:     83
  WF centre and spread    1  (  0.010282,  1.854995,  2.834190 )     8.77346173
  WF centre and spread    2  (  1.610344,  0.922670, -0.098278 )     7.49238343
  Sum of centres and spreads (  1.620626,  2.777665,  2.735913 )    16.26584516
 
     83    -0.133E-03     0.0287772484       16.2658451560       0.07  <-- CONV
        O_D=      3.9811617 O_OD=      3.0232402 O_TOT=     16.2658452 <-- SPRD
 Delta: O_D=  0.2285402E-03 O_OD= -0.3618597E-03 O_TOT= -0.1333196E-03 <-- DLTA
 ------------------------------------------------------------------------------
 Cycle:     84
  WF centre and spread    1  (  0.009950,  1.855641,  2.833937 )     8.77243989
  WF centre and spread    2  (  1.610410,  0.922644, -0.098162 )     7.49331660
  Sum of centres and spreads (  1.620360,  2.778285,  2.735775 )    16.26575649
 
     84    -0.887E-04     0.0500622505       16.2657564906       0.07  <-- CONV
        O_D=      3.9811003 O_OD=      3.0232129 O_TOT=     16.2657565 <-- SPRD
 Delta: O_D= -0.6130939E-04 O_OD= -0.2735603E-04 O_TOT= -0.8866543E-04 <-- DLTA
 ------------------------------------------------------------------------------
 Cycle:     85
  WF centre and spread    1  (  0.009672,  1.855293,  2.832938 )     8.76851057
  WF centre and spread    2  (  1.610377,  0.922492, -0.097313 )     7.49712577
  Sum of centres and spreads (  1.620049,  2.777785,  2.735625 )    16.26563634
 
     85    -0.120E-03     0.0259194648       16.2656363398       0.07  <-- CONV
        O_D=      3.9808837 O_OD=      3.0233093 O_TOT=     16.2656363 <-- SPRD
 Delta: O_D= -0.2166012E-03 O_OD=  0.9645042E-04 O_TOT= -0.1201508E-03 <-- DLTA
 ------------------------------------------------------------------------------
 Cycle:     86
  WF centre and spread    1  (  0.008975,  1.854934,  2.832749 )     8.76757163
  WF centre and spread    2  (  1.610565,  0.922267, -0.097144 )     7.49798718
  Sum of centres and spreads (  1.619541,  2.777201,  2.735605 )    16.26555881
 
     86    -0.775E-04     0.0285030202       16.2655588111       0.07  <-- CONV
        O_D=      3.9807899 O_OD=      3.0233257 O_TOT=     16.2655588 <-- SPRD
 Delta: O_D= -0.9389614E-04 O_OD=  0.1636742E-04 O_TOT= -0.7752871E-04 <-- DLTA
 ------------------------------------------------------------------------------
 Cycle:     87
  WF centre and spread    1  (  0.008989,  1.855411,  2.833031 )     8.76836250
  WF centre and spread    2  (  1.610748,  0.921940, -0.097518 )     7.49713669
  Sum of centres and spreads (  1.619737,  2.777351,  2.735513 )    16.26549919
 
     87    -0.596E-04     0.0234298055       16.2654991885       0.07  <-- CONV
        O_D=      3.9809440 O_OD=      3.0231119 O_TOT=     16.2654992 <-- SPRD
 Delta: O_D=  0.1541667E-03 O_OD= -0.2137893E-03 O_TOT= -0.5962255E-04 <-- DLTA
 ------------------------------------------------------------------------------
 Cycle:     88
  WF centre and spread    1  (  0.009557,  1.854904,  2.831980 )     8.76396364
  WF centre and spread    2  (  1.611232,  0.921130, -0.096463 )     7.50143321
  Sum of centres and spreads (  1.620789,  2.776034,  2.735517 )    16.26539684
 
     88    -0.102E-03     0.0165681239       16.2653968425       0.07  <-- CONV
        O_D=      3.9810482 O_OD=      3.0229053 O_TOT=     16.2653968 <-- SPRD
 Delta: O_D=  0.1042303E-03 O_OD= -0.2065764E-03 O_TOT= -0.1023461E-03 <-- DLTA
 ------------------------------------------------------------------------------
 Cycle:     89
  WF centre and spread    1  (  0.009287,  1.855375,  2.831888 )     8.76361282
  WF centre and spread    2  (  1.611291,  0.921151, -0.096439 )     7.50173771
  Sum of centres and spreads (  1.620577,  2.776526,  2.735449 )    16.26535053
 
     89    -0.463E-04     0.0338845401       16.2653505343       0.07  <-- CONV
        O_D=      3.9810706 O_OD=      3.0228366 O_TOT=     16.2653505 <-- SPRD
 Delta: O_D=  0.2239811E-04 O_OD= -0.6870623E-04 O_TOT= -0.4630812E-04 <-- DLTA
 ------------------------------------------------------------------------------
 Cycle:     90
  WF centre and spread    1  (  0.009138,  1.855170,  2.831520 )     8.76239040
  WF centre and spread    2  (  1.611280,  0.921139, -0.096017 )     7.50290723
  Sum of centres and spreads (  1.620418,  2.776309,  2.735503 )    16.26529763
 
     90    -0.529E-04     0.0167957711       16.2652976325       0.07  <-- CONV
        O_D=      3.9811549 O_OD=      3.0226995 O_TOT=     16.2652976 <-- SPRD
 Delta: O_D=  0.8425913E-04 O_OD= -0.1371609E-03 O_TOT= -0.5290179E-04 <-- DLTA
 ------------------------------------------------------------------------------
 Cycle:     91
  WF centre and spread    1  (  0.008426,  1.854833,  2.830766 )     8.76013089
  WF centre and spread    2  (  1.611523,  0.920391, -0.095150 )     7.50506165
  Sum of centres and spreads (  1.619949,  2.775224,  2.735616 )    16.26519254
 
     91    -0.105E-03     0.0200376312       16.2651925437       0.07  <-- CONV
        O_D=      3.9814397 O_OD=      3.0223095 O_TOT=     16.2651925 <-- SPRD
 Delta: O_D=  0.2848390E-03 O_OD= -0.3899278E-03 O_TOT= -0.1050889E-03 <-- DLTA
 ------------------------------------------------------------------------------
 Cycle:     92
  WF centre and spread    1  (  0.008619,  1.855065,  2.830534 )     8.75943191
  WF centre and spread    2  (  1.611585,  0.920003, -0.094885 )     7.50571742
  Sum of centres and spreads (  1.620205,  2.775068,  2.735649 )    16.26514933
 
     92    -0.432E-04     0.0221743240       16.2651493281       0.07  <-- CONV
        O_D=      3.9816109 O_OD=      3.0220952 O_TOT=     16.2651493 <-- SPRD
 Delta: O_D=  0.1711324E-03 O_OD= -0.2143480E-03 O_TOT= -0.4321562E-04 <-- DLTA
 ------------------------------------------------------------------------------
 Cycle:     93
  WF centre and spread    1  (  0.008312,  1.855923,  2.829682 )     8.75652428
  WF centre and spread    2  (  1.612208,  0.918963, -0.093967 )     7.50851391
  Sum of centres and spreads (  1.620520,  2.774885,  2.735715 )    16.26503819
 
     93    -0.111E-03     0.0218261054       16.2650381851       0.07  <-- CONV
        O_D=      3.9819600 O_OD=      3.0216349 O_TOT=     16.2650382 <-- SPRD
 Delta: O_D=  0.3491478E-03 O_OD= -0.4602908E-03 O_TOT= -0.1111430E-03 <-- DLTA
 ------------------------------------------------------------------------------
 Cycle:     94
  WF centre and spread    1  (  0.008538,  1.855064,  2.829419 )     8.75546256
  WF centre and spread    2  (  1.612213,  0.918978, -0.093686 )     7.50950159
  Sum of centres and spreads (  1.620751,  2.774042,  2.735733 )    16.26496414
 
     94    -0.740E-04     0.0390818449       16.2649641406       0.08  <-- CONV
        O_D=      3.9817947 O_OD=      3.0217262 O_TOT=     16.2649641 <-- SPRD
 Delta: O_D= -0.1652882E-03 O_OD=  0.9124374E-04 O_TOT= -0.7404445E-04 <-- DLTA
 ------------------------------------------------------------------------------
 Cycle:     95
  WF centre and spread    1  (  0.008384,  1.854902,  2.828985 )     8.75374938
  WF centre and spread    2  (  1.612356,  0.918969, -0.093380 )     7.51116458
  Sum of centres and spreads (  1.620739,  2.773871,  2.735604 )    16.26491395
 
     95    -0.502E-04     0.0244442555       16.2649139537       0.08  <-- CONV
        O_D=      3.9816960 O_OD=      3.0217747 O_TOT=     16.2649140 <-- SPRD
 Delta: O_D= -0.9878029E-04 O_OD=  0.4859330E-04 O_TOT= -0.5018699E-04 <-- DLTA
 ------------------------------------------------------------------------------
 Cycle:     96
  WF centre and spread    1  (  0.008387,  1.855254,  2.828311 )     8.75073899
  WF centre and spread    2  (  1.612545,  0.918622, -0.092869 )     7.51407517
  Sum of centres and spreads (  1.620931,  2.773876,  2.735442 )    16.26481416
 
     96    -0.998E-04     0.0174314028       16.2648141579       0.08  <-- CONV
        O_D=      3.9815686 O_OD=      3.0218023 O_TOT=     16.2648142 <-- SPRD
 Delta: O_D= -0.1273975E-03 O_OD=  0.2760175E-04 O_TOT= -0.9979574E-04 <-- DLTA
 ------------------------------------------------------------------------------
 Cycle:     97
  WF centre and spread    1  (  0.008138,  1.854999,  2.828148 )     8.74993129
  WF centre and spread    2  (  1.612736,  0.918300, -0.092689 )     7.51484239
  Sum of centres and spreads (  1.620874,  2.773300,  2.735459 )    16.26477368
 
     97    -0.405E-04     0.0232085741       16.2647736780       0.08  <-- CONV
        O_D=      3.9814993 O_OD=      3.0218312 O_TOT=     16.2647737 <-- SPRD
 Delta: O_D= -0.6930147E-04 O_OD=  0.2882157E-04 O_TOT= -0.4047989E-04 <-- DLTA
 ------------------------------------------------------------------------------
 Cycle:     98
  WF centre and spread    1  (  0.008162,  1.855236,  2.828001 )     8.74926555
  WF centre and spread    2  (  1.612956,  0.917788, -0.092605 )     7.51546866
  Sum of centres and spreads (  1.621119,  2.773024,  2.735396 )    16.26473421
 
     98    -0.395E-04     0.0163110498       16.2647342118       0.08  <-- CONV
        O_D=      3.9816166 O_OD=      3.0216743 O_TOT=     16.2647342 <-- SPRD
 Delta: O_D=  0.1173919E-03 O_OD= -0.1568582E-03 O_TOT= -0.3946624E-04 <-- DLTA
 ------------------------------------------------------------------------------
 Cycle:     99
  WF centre and spread    1  (  0.008182,  1.854348,  2.824120 )     8.73410521
  WF centre and spread    2  (  1.614461,  0.914294, -0.088579 )     7.53030036
  Sum of centres and spreads (  1.622644,  2.768642,  2.735541 )    16.26440557
 
     99    -0.329E-03     0.0195635128       16.2644055679       0.08  <-- CONV
        O_D=      3.9819052 O_OD=      3.0210571 O_TOT=     16.2644056 <-- SPRD
 Delta: O_D=  0.2885465E-03 O_OD= -0.6171904E-03 O_TOT= -0.3286439E-03 <-- DLTA
 ------------------------------------------------------------------------------
 Cycle:    100
  WF centre and spread    1  (  0.007432,  1.855020,  2.823861 )     8.73303665
  WF centre and spread    2  (  1.614629,  0.914331, -0.088418 )     7.53116389
[...]
  Sum of centres and spreads (  1.624346,  2.742134,  2.735876 )    16.26197117
 
    202    -0.665E-07     0.0006101092       16.2619711663       0.15  <-- CONV
        O_D=      3.9654975 O_OD=      3.0350304 O_TOT=     16.2619712 <-- SPRD
 Delta: O_D= -0.1512192E-04 O_OD=  0.1505543E-04 O_TOT= -0.6648670E-07 <-- DLTA
 ------------------------------------------------------------------------------
 Cycle:    203
  WF centre and spread    1  (  0.002325,  1.856911,  2.792304 )     8.61197736
  WF centre and spread    2  (  1.622025,  0.885215, -0.056431 )     7.64999378
  Sum of centres and spreads (  1.624350,  2.742126,  2.735873 )    16.26197114
 
    203    -0.273E-07     0.0004051617       16.2619711390       0.15  <-- CONV
        O_D=      3.9654869 O_OD=      3.0350409 O_TOT=     16.2619711 <-- SPRD
 Delta: O_D= -0.1058856E-04 O_OD=  0.1056126E-04 O_TOT= -0.2730224E-07 <-- DLTA
 ------------------------------------------------------------------------------
 Cycle:    204
  WF centre and spread    1  (  0.002321,  1.856905,  2.792295 )     8.61193783
  WF centre and spread    2  (  1.622026,  0.885208, -0.056421 )     7.65003329
  Sum of centres and spreads (  1.624346,  2.742114,  2.735874 )    16.26197112
 
    204    -0.171E-07     0.0003175867       16.2619711219       0.15  <-- CONV
        O_D=      3.9654742 O_OD=      3.0350537 O_TOT=     16.2619711 <-- SPRD
 Delta: O_D= -0.1276483E-04 O_OD=  0.1274773E-04 O_TOT= -0.1710571E-07 <-- DLTA
 ------------------------------------------------------------------------------
 Cycle:    205
  WF centre and spread    1  (  0.002318,  1.856920,  2.792289 )     8.61191286
  WF centre and spread    2  (  1.622025,  0.885198, -0.056415 )     7.65005825
  Sum of centres and spreads (  1.624342,  2.742118,  2.735874 )    16.26197111
 
    205    -0.163E-07     0.0003360244       16.2619711056       0.15  <-- CONV
        O_D=      3.9654630 O_OD=      3.0350649 O_TOT=     16.2619711 <-- SPRD
 Delta: O_D= -0.1121011E-04 O_OD=  0.1119384E-04 O_TOT= -0.1626891E-07 <-- DLTA
 ------------------------------------------------------------------------------
 Cycle:    206
  WF centre and spread    1  (  0.002315,  1.856927,  2.792288 )     8.61190558
  WF centre and spread    2  (  1.622023,  0.885170, -0.056413 )     7.65006550
  Sum of centres and spreads (  1.624338,  2.742097,  2.735875 )    16.26197108
 
    206    -0.245E-07     0.0003043997       16.2619710811       0.15  <-- CONV
        O_D=      3.9654404 O_OD=      3.0350875 O_TOT=     16.2619711 <-- SPRD
 Delta: O_D= -0.2261120E-04 O_OD=  0.2258673E-04 O_TOT= -0.2446928E-07 <-- DLTA
 ------------------------------------------------------------------------------
 Cycle:    207
  WF centre and spread    1  (  0.002320,  1.856929,  2.792279 )     8.61187300
  WF centre and spread    2  (  1.622023,  0.885172, -0.056406 )     7.65009806
  Sum of centres and spreads (  1.624343,  2.742101,  2.735874 )    16.26197106
 
    207    -0.232E-07     0.0004182000       16.2619710579       0.15  <-- CONV
        O_D=      3.9654378 O_OD=      3.0350900 O_TOT=     16.2619711 <-- SPRD
 Delta: O_D= -0.2592656E-05 O_OD=  0.2569433E-05 O_TOT= -0.2322297E-07 <-- DLTA
 ------------------------------------------------------------------------------
 Cycle:    208
  WF centre and spread    1  (  0.002325,  1.856920,  2.792279 )     8.61187174
  WF centre and spread    2  (  1.622022,  0.885166, -0.056404 )     7.65009931
  Sum of centres and spreads (  1.624347,  2.742086,  2.735874 )    16.26197104
 
    208    -0.145E-07     0.0002899780       16.2619710434       0.16  <-- CONV
        O_D=      3.9654328 O_OD=      3.0350950 O_TOT=     16.2619710 <-- SPRD
 Delta: O_D= -0.4958553E-05 O_OD=  0.4944022E-05 O_TOT= -0.1453144E-07 <-- DLTA
 ------------------------------------------------------------------------------
 Cycle:    209
  WF centre and spread    1  (  0.002330,  1.856932,  2.792281 )     8.61188283
  WF centre and spread    2  (  1.622020,  0.885156, -0.056408 )     7.65008820
  Sum of centres and spreads (  1.624350,  2.742088,  2.735874 )    16.26197103
 
    209    -0.149E-07     0.0003154366       16.2619710284       0.16  <-- CONV
        O_D=      3.9654289 O_OD=      3.0350988 O_TOT=     16.2619710 <-- SPRD
 Delta: O_D= -0.3873735E-05 O_OD=  0.3858800E-05 O_TOT= -0.1493497E-07 <-- DLTA
 ------------------------------------------------------------------------------
 Cycle:    210
  WF centre and spread    1  (  0.002331,  1.856942,  2.792274 )     8.61185661
  WF centre and spread    2  (  1.622015,  0.885136, -0.056398 )     7.65011439
  Sum of centres and spreads (  1.624346,  2.742078,  2.735876 )    16.26197101
 
    210    -0.231E-07     0.0002958114       16.2619710053       0.16  <-- CONV
        O_D=      3.9654148 O_OD=      3.0351130 O_TOT=     16.2619710 <-- SPRD
 Delta: O_D= -0.1414176E-04 O_OD=  0.1411866E-04 O_TOT= -0.2309870E-07 <-- DLTA
 ------------------------------------------------------------------------------
 Cycle:    211
  WF centre and spread    1  (  0.002318,  1.856956,  2.792258 )     8.61179782
  WF centre and spread    2  (  1.622007,  0.885088, -0.056383 )     7.65017313
  Sum of centres and spreads (  1.624324,  2.742044,  2.735875 )    16.26197096
 
    211    -0.494E-07     0.0003658100       16.2619709559       0.16  <-- CONV
        O_D=      3.9653769 O_OD=      3.0351508 O_TOT=     16.2619710 <-- SPRD
 Delta: O_D= -0.3787821E-04 O_OD=  0.3782881E-04 O_TOT= -0.4939889E-07 <-- DLTA
 ------------------------------------------------------------------------------
 Cycle:    212
  WF centre and spread    1  (  0.002322,  1.856959,  2.792248 )     8.61176117
  WF centre and spread    2  (  1.622000,  0.885060, -0.056373 )     7.65020976
  Sum of centres and spreads (  1.624323,  2.742019,  2.735875 )    16.26197093
 
    212    -0.262E-07     0.0004965763       16.2619709298       0.16  <-- CONV
        O_D=      3.9653529 O_OD=      3.0351748 O_TOT=     16.2619709 <-- SPRD
 Delta: O_D= -0.2400962E-04 O_OD=  0.2398345E-04 O_TOT= -0.2616840E-07 <-- DLTA
 ------------------------------------------------------------------------------
 Cycle:    213
  WF centre and spread    1  (  0.002320,  1.856966,  2.792246 )     8.61175088
  WF centre and spread    2  (  1.622004,  0.885058, -0.056371 )     7.65022002
  Sum of centres and spreads (  1.624325,  2.742024,  2.735875 )    16.26197090
 
    213    -0.250E-07     0.0004785159       16.2619709048       0.16  <-- CONV
        O_D=      3.9653499 O_OD=      3.0351777 O_TOT=     16.2619709 <-- SPRD
 Delta: O_D= -0.2963025E-05 O_OD=  0.2938071E-05 O_TOT= -0.2495403E-07 <-- DLTA
 ------------------------------------------------------------------------------
 Cycle:    214
  WF centre and spread    1  (  0.002337,  1.856971,  2.792242 )     8.61172474
  WF centre and spread    2  (  1.622008,  0.885050, -0.056365 )     7.65024613
  Sum of centres and spreads (  1.624345,  2.742021,  2.735877 )    16.26197086
 
    214    -0.414E-07     0.0004736515       16.2619708634       0.16  <-- CONV
        O_D=      3.9653384 O_OD=      3.0351892 O_TOT=     16.2619709 <-- SPRD
 Delta: O_D= -0.1157861E-04 O_OD=  0.1153720E-04 O_TOT= -0.4141075E-07 <-- DLTA
 ------------------------------------------------------------------------------
 Cycle:    215
  WF centre and spread    1  (  0.002338,  1.856970,  2.792239 )     8.61171284
  WF centre and spread    2  (  1.622010,  0.885045, -0.056364 )     7.65025800
  Sum of centres and spreads (  1.624348,  2.742015,  2.735875 )    16.26197085
 
    215    -0.175E-07     0.0003224814       16.2619708459       0.16  <-- CONV
        O_D=      3.9653301 O_OD=      3.0351975 O_TOT=     16.2619708 <-- SPRD
 Delta: O_D= -0.8246544E-05 O_OD=  0.8229072E-05 O_TOT= -0.1747249E-07 <-- DLTA
 ------------------------------------------------------------------------------
 Cycle:    216
  WF centre and spread    1  (  0.002335,  1.856965,  2.792232 )     8.61168208
  WF centre and spread    2  (  1.622011,  0.885039, -0.056356 )     7.65028876
  Sum of centres and spreads (  1.624345,  2.742004,  2.735876 )    16.26197084
 
    216    -0.109E-07     0.0002547783       16.2619708351       0.16  <-- CONV
        O_D=      3.9653202 O_OD=      3.0352074 O_TOT=     16.2619708 <-- SPRD
 Delta: O_D= -0.9932944E-05 O_OD=  0.9922058E-05 O_TOT= -0.1088560E-07 <-- DLTA
 ------------------------------------------------------------------------------
 Cycle:    217
  WF centre and spread    1  (  0.002332,  1.856977,  2.792228 )     8.61166354
  WF centre and spread    2  (  1.622010,  0.885030, -0.056352 )     7.65030729
  Sum of centres and spreads (  1.624342,  2.742008,  2.735876 )    16.26197082
 
    217    -0.102E-07     0.0002669149       16.2619708249       0.16  <-- CONV
        O_D=      3.9653116 O_OD=      3.0352160 O_TOT=     16.2619708 <-- SPRD
 Delta: O_D= -0.8567700E-05 O_OD=  0.8557512E-05 O_TOT= -0.1018784E-07 <-- DLTA
 ------------------------------------------------------------------------------
 Cycle:    218
  WF centre and spread    1  (  0.002330,  1.856983,  2.792228 )     8.61166111
  WF centre and spread    2  (  1.622008,  0.885008, -0.056352 )     7.65030970
  Sum of centres and spreads (  1.624338,  2.741992,  2.735877 )    16.26197081
 
    218    -0.151E-07     0.0002389295       16.2619708098       0.16  <-- CONV
        O_D=      3.9652943 O_OD=      3.0352332 O_TOT=     16.2619708 <-- SPRD
 Delta: O_D= -0.1727953E-04 O_OD=  0.1726445E-04 O_TOT= -0.1508092E-07 <-- DLTA
 ------------------------------------------------------------------------------
 Cycle:    219
  WF centre and spread    1  (  0.002334,  1.856984,  2.792221 )     8.61163568
  WF centre and spread    2  (  1.622008,  0.885010, -0.056346 )     7.65033512
  Sum of centres and spreads (  1.624342,  2.741994,  2.735876 )    16.26197080
 
    219    -0.144E-07     0.0003289538       16.2619707954       0.16  <-- CONV
        O_D=      3.9652922 O_OD=      3.0352354 O_TOT=     16.2619708 <-- SPRD
 Delta: O_D= -0.2174094E-05 O_OD=  0.2159684E-05 O_TOT= -0.1440973E-07 <-- DLTA
 ------------------------------------------------------------------------------
 Cycle:    220
  WF centre and spread    1  (  0.002338,  1.856978,  2.792221 )     8.61163541
  WF centre and spread    2  (  1.622008,  0.885005, -0.056345 )     7.65033537
  Sum of centres and spreads (  1.624345,  2.741983,  2.735876 )    16.26197079
 
    220    -0.920E-08     0.0002288944       16.2619707862       0.16  <-- CONV
        O_D=      3.9652880 O_OD=      3.0352395 O_TOT=     16.2619708 <-- SPRD
 Delta: O_D= -0.4168244E-05 O_OD=  0.4159045E-05 O_TOT= -0.9198924E-08 <-- DLTA
 ------------------------------------------------------------------------------
 Cycle:    221
  WF centre and spread    1  (  0.002342,  1.856987,  2.792223 )     8.61164519
  WF centre and spread    2  (  1.622006,  0.884997, -0.056347 )     7.65032559
  Sum of centres and spreads (  1.624348,  2.741984,  2.735876 )    16.26197078
 
    221    -0.954E-08     0.0002515079       16.2619707766       0.16  <-- CONV
        O_D=      3.9652846 O_OD=      3.0352430 O_TOT=     16.2619708 <-- SPRD
 Delta: O_D= -0.3425366E-05 O_OD=  0.3415825E-05 O_TOT= -0.9540951E-08 <-- DLTA
 ------------------------------------------------------------------------------
 Cycle:    222
  WF centre and spread    1  (  0.002342,  1.856995,  2.792218 )     8.61162624
  WF centre and spread    2  (  1.622002,  0.884981, -0.056340 )     7.65034453
  Sum of centres and spreads (  1.624344,  2.741976,  2.735878 )    16.26197076
 
    222    -0.147E-07     0.0002372264       16.2619707619       0.17  <-- CONV
        O_D=      3.9652727 O_OD=      3.0352548 O_TOT=     16.2619708 <-- SPRD
 Delta: O_D= -0.1182796E-04 O_OD=  0.1181323E-04 O_TOT= -0.1473516E-07 <-- DLTA
 ------------------------------------------------------------------------------
 Cycle:    223
  WF centre and spread    1  (  0.002332,  1.857007,  2.792206 )     8.61158480
  WF centre and spread    2  (  1.621995,  0.884942, -0.056329 )     7.65038593
  Sum of centres and spreads (  1.624327,  2.741949,  2.735877 )    16.26197073
 
    223    -0.311E-07     0.0002905761       16.2619707308       0.17  <-- CONV
        O_D=      3.9652418 O_OD=      3.0352856 O_TOT=     16.2619707 <-- SPRD
 Delta: O_D= -0.3089560E-04 O_OD=  0.3086452E-04 O_TOT= -0.3107372E-07 <-- DLTA
 ------------------------------------------------------------------------------
 Cycle:    224
  WF centre and spread    1  (  0.002336,  1.857009,  2.792199 )     8.61155885
  WF centre and spread    2  (  1.621990,  0.884921, -0.056322 )     7.65041187
  Sum of centres and spreads (  1.624326,  2.741930,  2.735877 )    16.26197071
 
    224    -0.160E-07     0.0003861240       16.2619707148       0.17  <-- CONV
        O_D=      3.9652228 O_OD=      3.0353046 O_TOT=     16.2619707 <-- SPRD
 Delta: O_D= -0.1900036E-04 O_OD=  0.1898437E-04 O_TOT= -0.1598754E-07 <-- DLTA
 ------------------------------------------------------------------------------
 Cycle:    225
  WF centre and spread    1  (  0.002334,  1.857015,  2.792197 )     8.61155108
  WF centre and spread    2  (  1.621993,  0.884919, -0.056320 )     7.65041962
  Sum of centres and spreads (  1.624327,  2.741934,  2.735877 )    16.26197070
 
    225    -0.153E-07     0.0003811692       16.2619706996       0.17  <-- CONV
        O_D=      3.9652208 O_OD=      3.0353067 O_TOT=     16.2619707 <-- SPRD
 Delta: O_D= -0.2093685E-05 O_OD=  0.2078400E-05 O_TOT= -0.1528505E-07 <-- DLTA
 ------------------------------------------------------------------------------
 Cycle:    226
  WF centre and spread    1  (  0.002347,  1.857019,  2.792194 )     8.61152989
  WF centre and spread    2  (  1.621996,  0.884912, -0.056316 )     7.65044079
  Sum of centres and spreads (  1.624343,  2.741931,  2.735878 )    16.26197067
 
    226    -0.262E-07     0.0003691734       16.2619706734       0.17  <-- CONV
        O_D=      3.9652118 O_OD=      3.0353156 O_TOT=     16.2619707 <-- SPRD
 Delta: O_D= -0.8984524E-05 O_OD=  0.8958329E-05 O_TOT= -0.2619550E-07 <-- DLTA
 ------------------------------------------------------------------------------
 Cycle:    227
  WF centre and spread    1  (  0.002348,  1.857018,  2.792193 )     8.61152037
  WF centre and spread    2  (  1.621998,  0.884908, -0.056316 )     7.65045029
  Sum of centres and spreads (  1.624346,  2.741926,  2.735877 )    16.26197066
 
    227    -0.112E-07     0.0002569506       16.2619706622       0.17  <-- CONV
        O_D=      3.9652053 O_OD=      3.0353221 O_TOT=     16.2619707 <-- SPRD
 Delta: O_D= -0.6454605E-05 O_OD=  0.6443427E-05 O_TOT= -0.1117797E-07 <-- DLTA
 ------------------------------------------------------------------------------
 Cycle:    228
  WF centre and spread    1  (  0.002346,  1.857015,  2.792187 )     8.61149610
  WF centre and spread    2  (  1.621998,  0.884903, -0.056309 )     7.65047456
  Sum of centres and spreads (  1.624344,  2.741918,  2.735878 )    16.26197066
 
    228    -0.693E-08     0.0002042163       16.2619706553       0.17  <-- CONV
        O_D=      3.9651975 O_OD=      3.0353299 O_TOT=     16.2619707 <-- SPRD
 Delta: O_D= -0.7797605E-05 O_OD=  0.7790679E-05 O_TOT= -0.6926179E-08 <-- DLTA
 ------------------------------------------------------------------------------
 Cycle:    229
  WF centre and spread    1  (  0.002344,  1.857024,  2.792184 )     8.61148165
  WF centre and spread    2  (  1.621997,  0.884896, -0.056306 )     7.65048900
  Sum of centres and spreads (  1.624341,  2.741921,  2.735877 )    16.26197065
 
    229    -0.643E-08     0.0002123405       16.2619706488       0.17  <-- CONV
        O_D=      3.9651908 O_OD=      3.0353366 O_TOT=     16.2619706 <-- SPRD
 Delta: O_D= -0.6705260E-05 O_OD=  0.6698825E-05 O_TOT= -0.6434387E-08 <-- DLTA
 ------------------------------------------------------------------------------
 Cycle:    230
  WF centre and spread    1  (  0.002342,  1.857029,  2.792184 )     8.61148081
  WF centre and spread    2  (  1.621996,  0.884879, -0.056306 )     7.65048983
  Sum of centres and spreads (  1.624339,  2.741908,  2.735878 )    16.26197064
 
    230    -0.940E-08     0.0001885646       16.2619706394       0.17  <-- CONV
        O_D=      3.9651773 O_OD=      3.0353501 O_TOT=     16.2619706 <-- SPRD
 Delta: O_D= -0.1351675E-04 O_OD=  0.1350735E-04 O_TOT= -0.9402775E-08 <-- DLTA
 ------------------------------------------------------------------------------
 Cycle:    231
  WF centre and spread    1  (  0.002346,  1.857030,  2.792179 )     8.61146075
  WF centre and spread    2  (  1.621996,  0.884880, -0.056301 )     7.65050988
  Sum of centres and spreads (  1.624342,  2.741910,  2.735877 )    16.26197063
 
    231    -0.902E-08     0.0002600293       16.2619706304       0.17  <-- CONV
        O_D=      3.9651755 O_OD=      3.0353519 O_TOT=     16.2619706 <-- SPRD
 Delta: O_D= -0.1804169E-05 O_OD=  0.1795146E-05 O_TOT= -0.9022934E-08 <-- DLTA
 ------------------------------------------------------------------------------
 Cycle:    232
  WF centre and spread    1  (  0.002348,  1.857025,  2.792178 )     8.61146083
  WF centre and spread    2  (  1.621996,  0.884876, -0.056300 )     7.65050979
  Sum of centres and spreads (  1.624344,  2.741901,  2.735878 )    16.26197062
 
    232    -0.584E-08     0.0001813616       16.2619706246       0.17  <-- CONV
        O_D=      3.9651720 O_OD=      3.0353553 O_TOT=     16.2619706 <-- SPRD
 Delta: O_D= -0.3459115E-05 O_OD=  0.3453279E-05 O_TOT= -0.5836554E-08 <-- DLTA
 ------------------------------------------------------------------------------

             <<<     Delta < 1.000E-08  over  5 iterations     >>>
             <<< Wannierisation convergence criteria satisfied >>>

 Final State
  WF centre and spread    1  (  0.002348,  1.857025,  2.792178 )     8.61146083
  WF centre and spread    2  (  1.621996,  0.884876, -0.056300 )     7.65050979
  Sum of centres and spreads (  1.624344,  2.741901,  2.735878 )    16.26197062
 
         Spreads (Ang^2)       Omega I      =     9.261443253
        ================       Omega D      =     3.965172033
                               Omega OD     =     3.035355338
    Final Spread (Ang^2)       Omega Total  =    16.261970625
 ------------------------------------------------------------------------------

 Wannier centres written to file wann_centres.xyz
 Time for wannierise            0.163 (sec)

 Writing checkpoint file wann.chk... done

 *---------------------------------------------------------------------------*
 |                               PLOTTING                                    |
 *---------------------------------------------------------------------------*
 
 
 Calculating interpolated band-structure
 
 Time to calculate interpolated band structure       0.015 (sec)
 
 Time for plotting              0.035 (sec)
 Total Execution Time           0.464 (sec)

 *===========================================================================*
 |                             TIMING INFORMATION                            |
 *===========================================================================*
 |    Tag                                                Ncalls      Time (s)|
 |---------------------------------------------------------------------------|
 |kmesh: get                                        :         1         0.030|
 |overlap: allocate                                 :         1         0.000|
 |overlap: read                                     :         1         0.217|
 |dis: main                                         :         1         0.011|
 |wann: main                                        :         1         0.163|
 |plot: main                                        :         1         0.035|
 *---------------------------------------------------------------------------*
 
 All done: wannier90 exiting
