
     Program PWSCF v.7.1 starts on 12Dec2022 at 12: 4:21 

     This program is part of the open-source Quantum ESPRESSO suite
     for quantum simulation of materials; please cite
         "P. Giannozzi et al., J. Phys.:Condens. Matter 21 395502 (2009);
         "P. Giannozzi et al., J. Phys.:Condens. Matter 29 465901 (2017);
         "P. Giannozzi et al., J. Chem. Phys. 152 154105 (2020);
          URL http://www.quantum-espresso.org", 
     in publications or presentations arising from this work. More details at
     http://www.quantum-espresso.org/quote

     Parallel version (MPI), running on    16 processors

     MPI processes distributed on     1 nodes
     72216 MiB available memory on the printing compute node when the environment starts
 
     Reading input from bands.pwi
Warning: card &IONS ignored
Warning: card / ignored
Warning: card &CELL ignored
Warning: card / ignored

     Current dimensions of program PWSCF are:
     Max number of different atomic species (ntypx) = 10
     Max number of k-points (npk) =  40000
     Max angular momentum in pseudopotentials (lmaxx) =  4

     Atomic positions and unit cell read from directory:
     /scratch/elinscott/materials_cloud_archive/zno/TMP/kc_bands.save/
     Atomic positions from file used, from input discarded
 
 
     K-points division:     npool     =       4
     R & G space division:  proc/nbgrp/npool/nimage =       4
     Subspace diagonalization in iterative solution of the eigenvalue problem:
     a serial algorithm will be used

 
     Parallelization info
     --------------------
     sticks:   dense  smooth     PW     G-vecs:    dense   smooth      PW
     Min         127     127     40                 3819     3819     654
     Max         128     128     42                 3826     3826     657
     Sum         511     511    163                15291    15291    2623
 
     Using Slab Decomposition
 


     bravais-lattice index     =            4
     lattice parameter (alat)  =       6.1406  a.u.
     unit-cell volume          =     321.2403 (a.u.)^3
     number of atoms/cell      =            4
     number of atomic types    =            2
     number of electrons       =        52.00 (up:  26.00, down:  26.00)
     number of Kohn-Sham states=           52
     kinetic-energy cutoff     =      50.0000  Ry
     charge density cutoff     =     200.0000  Ry
     Exchange-correlation= SLA  PW   NOGX NOGC
                           (   1   4   0   0   0   0   0)

     celldm(1)=   6.140570  celldm(2)=   0.000000  celldm(3)=   1.602040
     celldm(4)=   0.000000  celldm(5)=   0.000000  celldm(6)=   0.000000

     crystal axes: (cart. coord. in units of alat)
               a(1) = (   1.000000   0.000000   0.000000 )  
               a(2) = (  -0.500000   0.866025   0.000000 )  
               a(3) = (   0.000000   0.000000   1.602040 )  

     reciprocal axes: (cart. coord. in units 2 pi/alat)
               b(1) = (  1.000000  0.577350  0.000000 )  
               b(2) = (  0.000000  1.154701  0.000000 )  
               b(3) = (  0.000000  0.000000  0.624204 )  


     PseudoPot. # 1 for Zn read from file:
     /home/elinscott/code/koopmans/src/koopmans/pseudopotentials/pseudo_dojo_standard_v0.4.1/lda/Zn.upf
     MD5 check sum: 492e12d15cacde48a98384ec5dd6fb31
     Pseudo is Norm-conserving + core correction, Zval = 20.0
     Generated using ONCVPSP code by D. R. Hamann
     Using radial grid of 1296 points,  6 beta functions with: 
                l(1) =   0
                l(2) =   0
                l(3) =   1
                l(4) =   1
                l(5) =   2
                l(6) =   2

     PseudoPot. # 2 for O  read from file:
     /home/elinscott/code/koopmans/src/koopmans/pseudopotentials/pseudo_dojo_standard_v0.4.1/lda/O.upf
     MD5 check sum: 86ed389b6a5065e60c3f64c68a612de9
     Pseudo is Norm-conserving + core correction, Zval =  6.0
     Generated using ONCVPSP code by D. R. Hamann
     Using radial grid of  926 points,  5 beta functions with: 
                l(1) =   0
                l(2) =   0
                l(3) =   1
                l(4) =   1
                l(5) =   2

     atomic species   valence    mass     pseudopotential
        Zn            20.00    65.38000     Zn( 1.00)
        O              6.00    15.99900     O ( 1.00)

     Starting magnetic structure 
     atomic species   magnetization
        Zn           0.000
        O            0.000

      4 Sym. Ops. (no inversion) found ( 2 have fractional translation)


                                    s                        frac. trans.

      isym =  1     identity                                     

 cryst.   s( 1) = (     1          0          0      )
                  (     0          1          0      )
                  (     0          0          1      )

 cart.    s( 1) = (  1.0000000 -0.0000000  0.0000000 )
                  (  0.0000000  1.0000000  0.0000000 )
                  (  0.0000000  0.0000000  1.0000000 )


      isym =  2     180 deg rotation - cart. axis [0,0,1]        

 cryst.   s( 2) = (    -1          0          0      )    f =(  0.0000000 )
                  (     0         -1          0      )       (  0.0000000 )
                  (     0          0          1      )       (  0.5000000 )

 cart.    s( 2) = ( -1.0000000  0.0000000  0.0000000 )    f =(  0.0000000 )
                  (  0.0000000 -1.0000000  0.0000000 )       (  0.0000000 )
                  (  0.0000000  0.0000000  1.0000000 )       (  0.8010200 )


      isym =  3     inv. 180 deg rotation - cryst. axis [1,-1,0] 

 cryst.   s( 3) = (     0          1          0      )    f =(  0.0000000 )
                  (     1          0          0      )       ( -0.0000000 )
                  (     0          0          1      )       (  0.5000000 )

 cart.    s( 3) = ( -0.5000000  0.8660254  0.0000000 )    f =(  0.0000000 )
                  (  0.8660254  0.5000000  0.0000000 )       ( -0.0000000 )
                  (  0.0000000  0.0000000  1.0000000 )       (  0.8010200 )


      isym =  4     inv. 180 deg rotation - cryst. axis [1,1,0]  

 cryst.   s( 4) = (     0         -1          0      )
                  (    -1          0          0      )
                  (     0          0          1      )

 cart.    s( 4) = (  0.5000000 -0.8660254  0.0000000 )
                  ( -0.8660254 -0.5000000  0.0000000 )
                  (  0.0000000  0.0000000  1.0000000 )


     point group C_2v (mm2) 
     there are  4 classes
     the character table:

       E     C2    s_v   s_v' 
A_1    1.00  1.00  1.00  1.00
A_2    1.00  1.00 -1.00 -1.00
B_1    1.00 -1.00  1.00 -1.00
B_2    1.00 -1.00 -1.00  1.00

     the symmetry operations in each class and the name of the first element:

     E        1
          identity                                               
     C2       2
          180 deg rotation - cart. axis [0,0,1]                  
     s_v      3
          inv. 180 deg rotation - cryst. axis [1,-1,0]           
     s_v'     4
          inv. 180 deg rotation - cryst. axis [1,1,0]            

   Cartesian axes

     site n.     atom                  positions (alat units)
         1           Zn  tau(   1) = (  -0.0000500   0.5773791   0.8010200  )
         2           Zn  tau(   2) = (   0.5000500   0.2886463   0.0000000  )
         3           O   tau(   3) = (  -0.0000500   0.5773791   0.1878392  )
         4           O   tau(   4) = (   0.5000500   0.2886463   0.9888592  )

   Crystallographic axes

     site n.     atom                  positions (cryst. coord.)
         1           Zn  tau(   1) = (  0.3333000  0.6667000  0.5000000  )
         2           Zn  tau(   2) = (  0.6667000  0.3333000  0.0000000  )
         3           O   tau(   3) = (  0.3333000  0.6667000  0.1172500  )
         4           O   tau(   4) = (  0.6667000  0.3333000  0.6172500  )

     number of k points=    53
                       cart. coord. in units 2pi/alat
        k(    1) = (   0.0000000   0.0000000   0.3121021), wk =   0.0188679
        k(    2) = (   0.0500000   0.0288675   0.3121021), wk =   0.0188679
        k(    3) = (   0.1000000   0.0577350   0.3121021), wk =   0.0188679
        k(    4) = (   0.1500000   0.0866025   0.3121021), wk =   0.0188679
        k(    5) = (   0.2000000   0.1154701   0.3121021), wk =   0.0188679
        k(    6) = (   0.2500000   0.1443376   0.3121021), wk =   0.0188679
        k(    7) = (   0.3000000   0.1732051   0.3121021), wk =   0.0188679
        k(    8) = (   0.3500000   0.2020726   0.3121021), wk =   0.0188679
        k(    9) = (   0.4000000   0.2309401   0.3121021), wk =   0.0188679
        k(   10) = (   0.4500000   0.2598076   0.3121021), wk =   0.0188679
        k(   11) = (   0.5000000   0.2886751   0.3121021), wk =   0.0188679
        k(   12) = (   0.5000000   0.2886751   0.2496817), wk =   0.0188679
        k(   13) = (   0.5000000   0.2886751   0.1872612), wk =   0.0188679
        k(   14) = (   0.5000000   0.2886751   0.1248408), wk =   0.0188679
        k(   15) = (   0.5000000   0.2886751   0.0624204), wk =   0.0188679
        k(   16) = (   0.5000000   0.2886751   0.0000000), wk =   0.0188679
        k(   17) = (   0.4545455   0.2624319   0.0000000), wk =   0.0188679
        k(   18) = (   0.4090909   0.2361887   0.0000000), wk =   0.0188679
        k(   19) = (   0.3636364   0.2099456   0.0000000), wk =   0.0188679
        k(   20) = (   0.3181818   0.1837024   0.0000000), wk =   0.0188679
        k(   21) = (   0.2727273   0.1574592   0.0000000), wk =   0.0188679
        k(   22) = (   0.2272727   0.1312160   0.0000000), wk =   0.0188679
        k(   23) = (   0.1818182   0.1049728   0.0000000), wk =   0.0188679
        k(   24) = (   0.1363636   0.0787296   0.0000000), wk =   0.0188679
        k(   25) = (   0.0909091   0.0524864   0.0000000), wk =   0.0188679
        k(   26) = (   0.0454545   0.0262432   0.0000000), wk =   0.0188679
        k(   27) = (   0.0000000   0.0000000   0.0000000), wk =   0.0188679
        k(   28) = (   0.0000000   0.0000000   0.0520170), wk =   0.0188679
        k(   29) = (   0.0000000   0.0000000   0.1040340), wk =   0.0188679
        k(   30) = (   0.0000000   0.0000000   0.1560510), wk =   0.0188679
        k(   31) = (   0.0000000   0.0000000   0.2080680), wk =   0.0188679
        k(   32) = (   0.0000000   0.0000000   0.2600851), wk =   0.0188679
        k(   33) = (   0.0000000   0.0000000   0.3121021), wk =   0.0188679
        k(   34) = (   0.0256410   0.0444116   0.3121021), wk =   0.0188679
        k(   35) = (   0.0512821   0.0888231   0.3121021), wk =   0.0188679
        k(   36) = (   0.0769231   0.1332347   0.3121021), wk =   0.0188679
        k(   37) = (   0.1025641   0.1776462   0.3121021), wk =   0.0188679
        k(   38) = (   0.1282051   0.2220578   0.3121021), wk =   0.0188679
        k(   39) = (   0.1538462   0.2664694   0.3121021), wk =   0.0188679
        k(   40) = (   0.1794872   0.3108809   0.3121021), wk =   0.0188679
        k(   41) = (   0.2051282   0.3552925   0.3121021), wk =   0.0188679
        k(   42) = (   0.2307692   0.3997040   0.3121021), wk =   0.0188679
        k(   43) = (   0.2564103   0.4441156   0.3121021), wk =   0.0188679
        k(   44) = (   0.2820513   0.4885272   0.3121021), wk =   0.0188679
        k(   45) = (   0.3076923   0.5329387   0.3121021), wk =   0.0188679
        k(   46) = (   0.3333333   0.5773503   0.3121021), wk =   0.0188679
        k(   47) = (   0.3333333   0.5773503   0.2675161), wk =   0.0188679
        k(   48) = (   0.3333333   0.5773503   0.2229300), wk =   0.0188679
        k(   49) = (   0.3333333   0.5773503   0.1783440), wk =   0.0188679
        k(   50) = (   0.3333333   0.5773503   0.1337580), wk =   0.0188679
        k(   51) = (   0.3333333   0.5773503   0.0891720), wk =   0.0188679
        k(   52) = (   0.3333333   0.5773503   0.0445860), wk =   0.0188679
        k(   53) = (   0.3333333   0.5773503   0.0000000), wk =   0.0188679

                       cryst. coord.
        k(    1) = (   0.0000000   0.0000000   0.5000000), wk =   0.0188679
        k(    2) = (   0.0500000  -0.0000000   0.5000000), wk =   0.0188679
        k(    3) = (   0.1000000  -0.0000000   0.5000000), wk =   0.0188679
        k(    4) = (   0.1500000   0.0000000   0.5000000), wk =   0.0188679
        k(    5) = (   0.2000000  -0.0000000   0.5000000), wk =   0.0188679
        k(    6) = (   0.2500000   0.0000000   0.5000000), wk =   0.0188679
        k(    7) = (   0.3000000   0.0000000   0.5000000), wk =   0.0188679
        k(    8) = (   0.3500000   0.0000000   0.5000000), wk =   0.0188679
        k(    9) = (   0.4000000  -0.0000000   0.5000000), wk =   0.0188679
        k(   10) = (   0.4500000   0.0000000   0.5000000), wk =   0.0188679
        k(   11) = (   0.5000000   0.0000000   0.5000000), wk =   0.0188679
        k(   12) = (   0.5000000   0.0000000   0.4000000), wk =   0.0188679
        k(   13) = (   0.5000000   0.0000000   0.3000000), wk =   0.0188679
        k(   14) = (   0.5000000   0.0000000   0.2000000), wk =   0.0188679
        k(   15) = (   0.5000000   0.0000000   0.1000000), wk =   0.0188679
        k(   16) = (   0.5000000   0.0000000   0.0000000), wk =   0.0188679
        k(   17) = (   0.4545455   0.0000000   0.0000000), wk =   0.0188679
        k(   18) = (   0.4090909  -0.0000000   0.0000000), wk =   0.0188679
        k(   19) = (   0.3636364  -0.0000000   0.0000000), wk =   0.0188679
        k(   20) = (   0.3181818  -0.0000000   0.0000000), wk =   0.0188679
        k(   21) = (   0.2727273   0.0000000   0.0000000), wk =   0.0188679
        k(   22) = (   0.2272727   0.0000000   0.0000000), wk =   0.0188679
        k(   23) = (   0.1818182  -0.0000000   0.0000000), wk =   0.0188679
        k(   24) = (   0.1363636   0.0000000   0.0000000), wk =   0.0188679
        k(   25) = (   0.0909091  -0.0000000   0.0000000), wk =   0.0188679
        k(   26) = (   0.0454545   0.0000000   0.0000000), wk =   0.0188679
        k(   27) = (   0.0000000   0.0000000   0.0000000), wk =   0.0188679
        k(   28) = (   0.0000000   0.0000000   0.0833333), wk =   0.0188679
        k(   29) = (   0.0000000   0.0000000   0.1666667), wk =   0.0188679
        k(   30) = (   0.0000000   0.0000000   0.2500000), wk =   0.0188679
        k(   31) = (   0.0000000   0.0000000   0.3333333), wk =   0.0188679
        k(   32) = (   0.0000000   0.0000000   0.4166667), wk =   0.0188679
        k(   33) = (   0.0000000   0.0000000   0.5000000), wk =   0.0188679
        k(   34) = (   0.0256410   0.0256410   0.5000000), wk =   0.0188679
        k(   35) = (   0.0512821   0.0512821   0.5000000), wk =   0.0188679
        k(   36) = (   0.0769231   0.0769231   0.5000000), wk =   0.0188679
        k(   37) = (   0.1025641   0.1025641   0.5000000), wk =   0.0188679
        k(   38) = (   0.1282051   0.1282051   0.5000000), wk =   0.0188679
        k(   39) = (   0.1538462   0.1538462   0.5000000), wk =   0.0188679
        k(   40) = (   0.1794872   0.1794872   0.5000000), wk =   0.0188679
        k(   41) = (   0.2051282   0.2051282   0.5000000), wk =   0.0188679
        k(   42) = (   0.2307692   0.2307692   0.5000000), wk =   0.0188679
        k(   43) = (   0.2564103   0.2564103   0.5000000), wk =   0.0188679
        k(   44) = (   0.2820513   0.2820513   0.5000000), wk =   0.0188679
        k(   45) = (   0.3076923   0.3076923   0.5000000), wk =   0.0188679
        k(   46) = (   0.3333333   0.3333333   0.5000000), wk =   0.0188679
        k(   47) = (   0.3333333   0.3333333   0.4285714), wk =   0.0188679
        k(   48) = (   0.3333333   0.3333333   0.3571429), wk =   0.0188679
        k(   49) = (   0.3333333   0.3333333   0.2857143), wk =   0.0188679
        k(   50) = (   0.3333333   0.3333333   0.2142857), wk =   0.0188679
        k(   51) = (   0.3333333   0.3333333   0.1428571), wk =   0.0188679
        k(   52) = (   0.3333333   0.3333333   0.0714286), wk =   0.0188679
        k(   53) = (   0.3333333   0.3333333   0.0000000), wk =   0.0188679

     Dense  grid:    15291 G-vectors     FFT dimensions: (  27,  27,  48)

     Dynamical RAM for                 wfc:       0.38 MB

     Dynamical RAM for     wfc (w. buffer):       0.38 MB

     Dynamical RAM for           str. fact:       0.12 MB

     Dynamical RAM for           local pot:       0.00 MB

     Dynamical RAM for          nlocal pot:       0.45 MB

     Dynamical RAM for                qrad:       2.27 MB

     Dynamical RAM for          rho,v,vnew:       0.75 MB

     Dynamical RAM for           G-vectors:       0.25 MB

     Dynamical RAM for          h,s,v(r/c):       0.50 MB

     Dynamical RAM for          <psi|beta>:       0.05 MB

     Dynamical RAM for                 psi:       0.76 MB

     Dynamical RAM for                hpsi:       0.76 MB

     Dynamical RAM for      wfcinit/wfcrot:       0.82 MB

     Estimated static dynamical RAM per process >       4.80 MB

     Estimated max dynamical RAM per process >       6.86 MB

     Estimated total dynamical RAM >     109.77 MB

     Check: negative core charge=   -0.000270
     Generating pointlists ...
     new r_m :   0.2504 (alat units)  1.5377 (a.u.) for type    1
     new r_m :   0.2504 (alat units)  1.5377 (a.u.) for type    2

     The potential is recalculated from file :
     /scratch/elinscott/materials_cloud_archive/zno/TMP/kc_bands.save/charge-density

     Starting wfcs are   28 randomized atomic wfcs +   24 random wfcs

     Band Structure Calculation
     Davidson diagonalization with overlap

     Computing kpt #:     1  of    27 on this pool
     total cpu time spent up to now is        0.5 secs

     Computing kpt #:     2  of    27 on this pool
     total cpu time spent up to now is        0.7 secs

     Computing kpt #:     3  of    27 on this pool
     total cpu time spent up to now is        0.8 secs

     Computing kpt #:     4  of    27 on this pool
     total cpu time spent up to now is        1.0 secs

     Computing kpt #:     5  of    27 on this pool
     total cpu time spent up to now is        1.2 secs

     Computing kpt #:     6  of    27 on this pool
     total cpu time spent up to now is        1.3 secs

     Computing kpt #:     7  of    27 on this pool
     total cpu time spent up to now is        1.5 secs

     Computing kpt #:     8  of    27 on this pool
     total cpu time spent up to now is        1.7 secs

     Computing kpt #:     9  of    27 on this pool
     total cpu time spent up to now is        1.8 secs

     Computing kpt #:    10  of    27 on this pool
     total cpu time spent up to now is        2.0 secs

     Computing kpt #:    11  of    27 on this pool
     total cpu time spent up to now is        2.3 secs

     Computing kpt #:    12  of    27 on this pool
     total cpu time spent up to now is        2.6 secs

     Computing kpt #:    13  of    27 on this pool
     total cpu time spent up to now is        2.7 secs

     Computing kpt #:    14  of    27 on this pool
     total cpu time spent up to now is        2.9 secs

     Computing kpt #:    15  of    27 on this pool
     total cpu time spent up to now is        3.1 secs

     Computing kpt #:    16  of    27 on this pool
     total cpu time spent up to now is        3.3 secs

     Computing kpt #:    17  of    27 on this pool
     total cpu time spent up to now is        3.5 secs

     Computing kpt #:    18  of    27 on this pool
     total cpu time spent up to now is        3.7 secs

     Computing kpt #:    19  of    27 on this pool
     total cpu time spent up to now is        3.9 secs

     Computing kpt #:    20  of    27 on this pool
     total cpu time spent up to now is        4.1 secs

     Computing kpt #:    21  of    27 on this pool
     total cpu time spent up to now is        4.4 secs

     Computing kpt #:    22  of    27 on this pool
     total cpu time spent up to now is        4.6 secs

     Computing kpt #:    23  of    27 on this pool
     total cpu time spent up to now is        4.8 secs

     Computing kpt #:    24  of    27 on this pool
     total cpu time spent up to now is        5.1 secs

     Computing kpt #:    25  of    27 on this pool
     total cpu time spent up to now is        5.3 secs

     Computing kpt #:    26  of    27 on this pool
     total cpu time spent up to now is        5.5 secs

     Computing kpt #:    27  of    27 on this pool
     total cpu time spent up to now is        5.7 secs

     ethr =  2.00E-10,  avg # of iterations = 27.1

     total cpu time spent up to now is        5.7 secs

     End of band structure calculation

 ------ SPIN UP ------------


          k = 0.0000 0.0000 0.3121 (  1894 PWs)   bands (ev):

  -115.9195-115.9195 -69.6037 -69.6037 -69.5347 -69.5347 -69.5346 -69.5346
    -8.2007  -8.2007   3.1076   3.1076   3.3416   3.3416   3.3423   3.3423
     4.4255   4.4255   4.4255   4.4255   6.9177   6.9177   8.9246   8.9246
     8.9253   8.9253  12.6623  12.6623  19.1960  19.1960  22.2963  22.2963
    22.2985  22.2985  27.2995  27.2995  29.5168  29.5168  29.5183  29.5183
    33.6952  33.6952  34.2689  34.2689  34.2701  34.2701  37.6989  37.6989
    41.0972  41.0972  41.0984  41.0984

          k = 0.0500 0.0289 0.3121 (  1900 PWs)   bands (ev):

  -115.9195-115.9195 -69.6010 -69.6010 -69.5449 -69.5449 -69.5436 -69.5436
    -8.1897  -8.1897   3.0911   3.0911   3.3354   3.3354   3.3362   3.3362
     4.4178   4.4178   4.4347   4.4347   6.9114   6.9114   8.8395   8.8395
     8.8883   8.8883  12.7467  12.7467  19.1904  19.1904  22.1026  22.1026
    22.3188  22.3188  27.4323  27.4323  29.5162  29.5162  29.5177  29.5177
    33.3102  33.3102  34.3549  34.3549  34.7795  34.7795  37.8916  37.8916
    40.9776  40.9776  41.1053  41.1053

          k = 0.1000 0.0577 0.3121 (  1896 PWs)   bands (ev):

  -115.9194-115.9194 -69.5893 -69.5893 -69.5411 -69.5411 -69.5403 -69.5403
    -8.1573  -8.1573   3.0748   3.0748   3.3590   3.3590   3.3718   3.3718
     4.4341   4.4341   4.4588   4.4588   6.9082   6.9082   8.6386   8.6386
     8.8139   8.8139  12.9764  12.9764  19.1637  19.1637  21.6619  21.6619
    22.3921  22.3921  27.4988  27.4988  29.5460  29.5460  29.8081  29.8081
    32.8743  32.8743  34.6153  34.6153  35.5554  35.5554  38.3927  38.3927
    40.7217  40.7217  41.1504  41.1504

          k = 0.1500 0.0866 0.3121 (  1914 PWs)   bands (ev):

  -115.9195-115.9195 -69.5946 -69.5946 -69.5690 -69.5690 -69.5579 -69.5579
    -8.1070  -8.1070   3.0273   3.0273   3.3717   3.3717   3.3724   3.3724
     4.4238   4.4238   4.4470   4.4470   6.8471   6.8471   8.3489   8.3489
     8.6663   8.6663  13.2883  13.2883  19.0721  19.0721  21.1873  21.1873
    22.4853  22.4853  27.1515  27.1515  29.6178  29.6178  30.5922  30.5922
    32.5833  32.5833  34.9744  34.9744  36.3370  36.3370  38.9028  38.9028
    40.6099  40.6099  41.2084  41.2084

          k = 0.2000 0.1155 0.3121 (  1922 PWs)   bands (ev):

  -115.9195-115.9195 -69.5942 -69.5942 -69.5861 -69.5861 -69.5621 -69.5621
    -8.0423  -8.0423   2.9923   2.9923   3.4115   3.4115   3.4269   3.4269
     4.4261   4.4261   4.4300   4.4300   6.7254   6.7254   8.0971   8.0971
     8.4944   8.4944  13.6370  13.6370  18.8685  18.8685  20.8495  20.8495
    22.6012  22.6012  26.6197  26.6197  29.7920  29.7920  31.3637  31.3637
    32.7062  32.7062  35.3836  35.3836  37.0078  37.0078  39.0971  39.0971
    40.9924  40.9924  41.3248  41.3248

          k = 0.2500 0.1443 0.3121 (  1918 PWs)   bands (ev):

  -115.9194-115.9194 -69.5963 -69.5963 -69.5725 -69.5725 -69.5572 -69.5572
    -7.9694  -7.9694   2.9636   2.9636   3.4848   3.4848   3.4916   3.4916
     4.4434   4.4434   4.4653   4.4653   6.5210   6.5210   7.9417   7.9417
     8.3239   8.3239  13.9836  13.9836  18.5731  18.5731  20.6817  20.6817
    22.7084  22.7084  26.1170  26.1170  30.0845  30.0845  31.4850  31.4850
    33.5940  33.5940  35.7698  35.7698  37.3883  37.3883  39.3306  39.3306
    41.4956  41.4956  41.6186  41.6186

          k = 0.3000 0.1732 0.3121 (  1918 PWs)   bands (ev):

  -115.9194-115.9194 -69.5905 -69.5905 -69.5742 -69.5742 -69.5550 -69.5550
    -7.8950  -7.8950   2.9477   2.9477   3.5496   3.5496   3.5607   3.5607
     4.4606   4.4606   4.5005   4.5005   6.2227   6.2227   7.8765   7.8765
     8.1349   8.1349  14.2909  14.2909  18.2507  18.2507  20.6058  20.6058
    22.7995  22.7995  25.7305  25.7305  30.4948  30.4948  31.3597  31.3597
    34.5032  34.5032  36.0376  36.0376  37.6554  37.6554  39.8582  39.8582
    41.6877  41.6877  42.3013  42.3013

          k = 0.3500 0.2021 0.3121 (  1924 PWs)   bands (ev):

  -115.9194-115.9194 -69.5988 -69.5988 -69.5761 -69.5761 -69.5611 -69.5611
    -7.8275  -7.8275   2.9356   2.9356   3.6040   3.6040   3.6303   3.6303
     4.4600   4.4600   4.5192   4.5192   5.8789   5.8789   7.8684   7.8684
     7.9644   7.9644  14.5439  14.5439  17.9633  17.9633  20.5465  20.5465
    22.8587  22.8587  25.4957  25.4957  30.9946  30.9946  31.2019  31.2019
    34.8420  34.8420  36.1106  36.1106  38.3240  38.3240  40.4551  40.4551
    41.8261  41.8261  43.1075  43.1075

          k = 0.4000 0.2309 0.3121 (  1928 PWs)   bands (ev):

  -115.9194-115.9194 -69.5919 -69.5919 -69.5833 -69.5833 -69.5699 -69.5699
    -7.7728  -7.7728   2.9399   2.9399   3.6471   3.6471   3.7054   3.7054
     4.4670   4.4670   4.5492   4.5492   5.5667   5.5667   7.8246   7.8246
     7.8676   7.8676  14.7332  14.7332  17.7516  17.7516  20.4839  20.4839
    22.8864  22.8864  25.3993  25.3993  31.0678  31.0678  31.5384  31.5384
    34.7513  34.7513  35.9978  35.9978  39.1972  39.1972  41.1332  41.1332
    41.8320  41.8320  43.9957  43.9957

          k = 0.4500 0.2598 0.3121 (  1918 PWs)   bands (ev):

  -115.9194-115.9194 -69.5851 -69.5851 -69.5709 -69.5709 -69.5573 -69.5573
    -7.7365  -7.7365   2.9661   2.9661   3.6756   3.6756   3.8022   3.8022
     4.4754   4.4754   4.6169   4.6169   5.3497   5.3497   7.7397   7.7397
     7.8869   7.8869  14.8524  14.8524  17.6338  17.6338  20.4392  20.4392
    22.9090  22.9090  25.3870  25.3870  30.9776  30.9776  31.9896  31.9896
    34.5925  34.5925  35.7929  35.7929  39.7412  39.7412  41.7605  41.7605
    42.0153  42.0153  44.4961  44.4961

          k = 0.5000 0.2887 0.3121 (  1924 PWs)   bands (ev):

  -115.9194-115.9194 -69.5895 -69.5895 -69.5732 -69.5732 -69.5713 -69.5713
    -7.7243  -7.7243   2.9595   2.9595   3.6827   3.6827   3.8017   3.8017
     4.4767   4.4767   4.6295   4.6295   5.2413   5.2413   7.7057   7.7057
     7.8922   7.8922  14.8885  14.8885  17.5929  17.5929  20.4172  20.4172
    22.9125  22.9125  25.3815  25.3815  30.9355  30.9355  32.1756  32.1756
    34.5180  34.5180  35.6866  35.6866  39.8770  39.8770  41.7201  41.7201
    42.5460  42.5460  44.4032  44.4032

          k = 0.5000 0.2887 0.2497 (  1924 PWs)   bands (ev):

  -115.9194-115.9194 -69.5933 -69.5885 -69.5876 -69.5762 -69.5644 -69.5577
    -7.7614  -7.6886   2.9581   3.0165   3.6244   3.7161   3.8169   3.8341
     4.4563   4.4671   4.5811   4.6560   5.2120   5.3025   7.4813   7.5838
     7.9203   8.1004  14.6781  15.2043  17.4670  17.6659  19.9640  21.0105
    22.7746  23.0540  24.4787  26.4396  30.5373  31.0900  31.3244  33.1366
    33.9473  35.1314  35.4967  35.9304  39.4991  40.0754  41.2616  42.0707
    42.3241  42.3782  43.5763  45.6572

          k = 0.5000 0.2887 0.1873 (  1924 PWs)   bands (ev):

  -115.9194-115.9194 -69.5915 -69.5894 -69.5781 -69.5742 -69.5739 -69.5618
    -7.7976  -7.6588   2.9785   3.0989   3.5680   3.8093   3.8246   3.8370
     4.4688   4.5204   4.5240   4.6552   5.1762   5.3830   7.1958   7.2899
     8.1129   8.1434  14.6212  15.5428  17.3019  17.6742  19.7278  21.5628
    22.6481  23.2018  23.9187  27.4063  30.2659  30.6337  30.6698  33.7153
    34.2115  35.3963  35.5763  36.2155  39.1219  39.3701  40.8434  41.9950
    42.2310  42.2531  43.9643  45.0081

          k = 0.5000 0.2887 0.1248 (  1928 PWs)   bands (ev):

  -115.9194-115.9194 -69.5954 -69.5894 -69.5875 -69.5848 -69.5786 -69.5680
    -7.8266  -7.6369   3.0055   3.2076   3.5202   3.8537   3.8588   3.8648
     4.4432   4.4489   4.4999   4.6851   5.1828   5.4411   6.7962   7.1074
     8.1153   8.2704  14.7085  15.8242  17.1107  17.6312  19.6923  21.7512
    22.5489  23.3094  24.0219  27.8816  29.7681  30.1123  30.5983  33.8052
    35.0503  35.5420  35.6201  36.4952  38.2240  38.8536  40.5234  42.1418
    42.1710  42.3418  44.0577  44.0943

          k = 0.5000 0.2887 0.0624 (  1920 PWs)   bands (ev):

  -115.9194-115.9194 -69.5910 -69.5850 -69.5841 -69.5744 -69.5661 -69.5588
    -7.8455  -7.6228   3.0484   3.3056   3.5018   3.9031   3.9080   3.9088
     4.4155   4.4473   4.5222   4.7103   5.2351   5.5081   6.4975   6.9970
     8.0321   8.3712  14.8532  16.0045  16.9359  17.5829  19.7601  21.6389
    22.4921  23.3869  24.6217  27.8628  28.8202  29.8016  31.5828  33.9564
    34.9522  35.1767  36.2692  36.7123  37.6630  38.6901  40.4425  41.9466
    42.3999  42.5053  42.6607  43.8341

          k = 0.5000 0.2887 0.0000 (  1906 PWs)   bands (ev):

  -115.9194-115.9193 -69.5740 -69.5666 -69.5624 -69.5596 -69.5551 -69.5491
    -7.8515  -7.6173   3.0762   3.3608   3.5112   3.9247   3.9532   3.9667
     4.3722   4.4892   4.5990   4.7302   5.2828   5.5430   6.3687   6.9827
     7.9934   8.4196  14.9270  16.0725  16.8686  17.5582  19.8087  21.5736
    22.4780  23.4330  24.9912  27.8041  28.3590  29.7073  32.3227  34.0258
    34.2549  35.1943  36.6319  36.8001  37.5774  38.6274  40.5860  41.8670
    42.0077  42.4943  42.5903  43.6958

          k = 0.4545 0.2624 0.0000 (  1916 PWs)   bands (ev):

  -115.9194-115.9194 -69.5856 -69.5777 -69.5762 -69.5757 -69.5636 -69.5525
    -7.8733  -7.6163   3.0471   3.3476   3.4966   3.8890   3.9203   3.9524
     4.3629   4.4366   4.5785   4.7644   5.1993   5.6156   6.3774   6.9974
     8.0533   8.4241  14.7317  16.2306  16.8666  17.5812  19.8344  21.5363
    22.4934  23.3980  24.9998  27.7837  28.4021  29.5253  32.3575  33.8238
    34.5620  35.2701  36.6260  36.7592  37.6349  38.5441  40.2793  40.9160
    41.7273  42.1018  43.2224  43.4943

          k = 0.4091 0.2362 0.0000 (  1922 PWs)   bands (ev):

  -115.9194-115.9194 -69.6026 -69.5927 -69.5802 -69.5744 -69.5650 -69.5532
    -7.9303  -7.6161   3.0146   3.3526   3.4798   3.8019   3.8541   3.9713
     4.3061   4.4086   4.5739   4.8193   5.1659   5.7046   6.4590   7.0872
     8.1775   8.4774  14.3115  16.5548  16.8618  17.6539  19.9223  21.4898
    22.5442  23.3488  25.0123  27.7034  28.5655  29.0702  32.4563  33.6964
    34.9156  35.4005  36.4998  36.8336  37.8191  38.3155  39.0159  40.5398
    40.8821  41.3148  42.3482  44.8307

          k = 0.3636 0.2099 0.0000 (  1916 PWs)   bands (ev):

  -115.9194-115.9194 -69.5954 -69.5903 -69.5794 -69.5752 -69.5483 -69.5393
    -8.0106  -7.6242   2.9909   3.3545   3.4751   3.7266   3.8478   4.0127
     4.2502   4.4118   4.5509   4.8091   5.2017   5.8220   6.6649   7.2506
     8.3602   8.5945  13.8239  16.7462  16.9390  17.8195  20.0479  21.5182
    22.6141  23.2992  25.0064  27.5746  28.4735  28.8693  32.5901  33.7409
    35.0285  35.3631  36.1877  37.0479  37.8551  38.0644  38.1132  39.2808
    39.8705  41.4203  41.9942  45.0449

          k = 0.3182 0.1837 0.0000 (  1914 PWs)   bands (ev):

  -115.9195-115.9193 -69.6178 -69.5839 -69.5794 -69.5646 -69.5404 -69.5331
    -8.1050  -7.6413   2.9717   3.3657   3.4585   3.6466   3.7678   4.0302
     4.1704   4.4044   4.5462   4.7977   5.1738   6.0888   6.9136   7.4379
     8.5557   8.7043  13.2940  16.5917  17.1834  18.1000  20.2402  21.7183
    22.6387  23.2898  24.9355  27.4717  27.8546  29.2756  32.6761  33.8553
    34.7183  35.1308  35.4125  37.0321  37.3178  37.7936  37.8269  39.0382
    39.1356  40.6870  42.8174  43.3834

          k = 0.2727 0.1575 0.0000 (  1914 PWs)   bands (ev):

  -115.9195-115.9193 -69.6044 -69.5857 -69.5805 -69.5645 -69.5526 -69.5364
    -8.2051  -7.6672   3.0108   3.3496   3.4199   3.5719   3.6518   3.9465
     4.1982   4.3796   4.5611   4.8067   5.0351   6.4774   7.2391   7.6242
     8.7354   8.8165  12.7494  16.3077  17.3397  18.5210  20.5394  22.1036
    22.5755  23.3479  24.7952  27.2845  27.4402  29.7520  32.5979  33.7177
    34.0443  34.2620  34.9296  36.1983  37.4119  37.5444  37.9631  38.2073
    39.6660  40.3069  41.9195  43.7052

          k = 0.2273 0.1312 0.0000 (  1902 PWs)   bands (ev):

  -115.9195-115.9193 -69.5730 -69.5692 -69.5620 -69.5517 -69.5500 -69.5477
    -8.3027  -7.6980   3.0538   3.3679   3.3700   3.5318   3.6023   3.8949
     4.2495   4.3470   4.5561   4.8372   4.9094   6.9230   7.6320   7.8517
     8.9085   8.9421  12.2176  15.9138  17.4252  19.0730  20.9640  22.4590
    22.6126  23.4426  24.6425  26.8467  27.4979  30.2031  32.2207  32.9086
    33.1530  33.4238  34.6907  36.0148  37.1848  37.3101  37.6829  38.3136
    39.4471  40.7912  41.0018  44.5378

          k = 0.1818 0.1050 0.0000 (  1898 PWs)   bands (ev):

  -115.9195-115.9193 -69.5760 -69.5676 -69.5594 -69.5472 -69.5441 -69.5420
    -8.3919  -7.7312   3.1047   3.3393   3.3734   3.4588   3.5418   3.8076
     4.2848   4.3499   4.5593   4.7965   4.8623   7.3628   7.9798   8.0541
     9.0365   9.0658  11.6772  15.4637  17.4615  19.7112  21.4886  22.3206
    23.1145  23.4985  24.5997  26.6357  27.5848  30.2767  31.5525  32.0785
    32.1232  32.8431  34.5097  35.8816  36.4226  37.4433  37.7610  38.7569
    38.9235  40.2186  41.8308  45.1853

          k = 0.1364 0.0787 0.0000 (  1900 PWs)   bands (ev):

  -115.9195-115.9194 -69.5748 -69.5724 -69.5637 -69.5619 -69.5420 -69.5373
    -8.4670  -7.7617   3.1407   3.2921   3.3811   3.4223   3.5039   3.7244
     4.3010   4.3414   4.5219   4.6616   4.8837   7.8002   8.2359   8.3311
     9.1462   9.1584  11.1564  15.0161  17.4733  20.4138  22.0628  22.1906
    23.3690  23.4668  24.8843  26.6689  27.6380  29.6800  30.8466  31.0756
    31.4822  32.8396  34.3809  34.6659  36.8200  37.7239  37.7918  38.2934
    39.2530  39.9441  42.7174  45.3487

          k = 0.0909 0.0525 0.0000 (  1882 PWs)   bands (ev):

  -115.9195-115.9193 -69.5637 -69.5501 -69.5423 -69.5388 -69.5257 -69.5193
    -8.5237  -7.7855   3.2012   3.2813   3.4016   3.4444   3.4795   3.6733
     4.3523   4.3571   4.5357   4.6334   4.9554   8.1840   8.3903   8.7122
     9.2388   9.2442  10.6668  14.6369  17.4858  21.1346  22.0948  22.6427
    23.3606  23.3803  25.4131  26.9286  27.5444  29.1104  30.1124  30.1863
    30.9044  33.1360  33.7120  34.2972  37.2837  37.6409  37.7878  37.9690
    39.7621  39.9846  43.5435  44.6916

          k = 0.0455 0.0262 0.0000 (  1894 PWs)   bands (ev):

  -115.9195-115.9193 -69.5718 -69.5612 -69.5575 -69.5530 -69.5436 -69.5276
    -8.5596  -7.8010   3.2175   3.2476   3.4019   3.4094   3.4156   3.6376
     4.3301   4.3403   4.4668   4.5258   5.0103   8.4181   8.4710   9.0643
     9.2747   9.2807  10.2200  14.3762  17.4763  21.7360  22.0267  23.0796
    23.2724  23.2884  25.7081  27.2871  27.4437  28.8968  29.4447  29.5373
    30.4298  32.5322  33.9797  34.2220  37.0517  37.6117  37.7605  38.0518
    40.1858  40.2199  44.0919  44.0955

          k = 0.0000 0.0000 0.0000 (  1907 PWs)   bands (ev):

  -115.9195-115.9194 -69.5867 -69.5867 -69.5842 -69.5549 -69.5548 -69.5319
    -8.5717  -7.8073   3.2161   3.2170   3.3992   3.4125   3.4129   3.6191
     4.3156   4.3158   4.4230   4.4232   4.9917   8.4791   8.4802   9.2674
     9.2674   9.2874   9.9768  14.2823  17.4561  21.9959  21.9971  23.2212
    23.2515  23.2549  25.7096  27.4930  27.4944  29.0304  29.1125  29.1137
    30.2636  32.2093  34.1970  34.2006  36.7792  37.7512  37.7533  38.0395
    40.3576  40.3601  43.8295  43.8322

          k = 0.0000 0.0000 0.0520 (  1900 PWs)   bands (ev):

  -115.9195-115.9194 -69.5921 -69.5615 -69.5614 -69.5478 -69.5478 -69.5428
    -8.5593  -7.8206   3.2400   3.2408   3.3630   3.4118   3.4123   3.5668
     4.3317   4.3319   4.4471   4.4474   5.0537   8.5307   8.5319   9.0606
     9.2798   9.2799  10.2275  14.2281  17.5249  22.0053  22.0066  22.9377
    23.1986  23.2020  25.8044  27.5716  27.5730  28.9739  29.2058  29.2069
    30.5709  32.1945  34.1084  34.1120  36.9492  37.6270  37.6293  37.8549
    40.4075  40.4100  43.3149  43.3164

          k = 0.0000 0.0000 0.1040 (  1900 PWs)   bands (ev):

  -115.9196-115.9193 -69.6042 -69.5802 -69.5543 -69.5542 -69.5365 -69.5364
    -8.5239  -7.8610   3.2545   3.2554   3.2701   3.4037   3.4041   3.4348
     4.3179   4.3180   4.5227   4.5228   5.2892   8.5786   8.5798   8.5846
     9.2460   9.2462  10.6530  14.0836  17.6506  22.0078  22.0092  22.2509
    23.0670  23.0702  26.0054  27.7836  27.7851  28.8077  29.4519  29.4529
    31.3936  32.2174  33.8698  33.8729  37.2334  37.2358  37.3838  37.4204
    40.5245  40.5268  42.5360  42.5363

          k = 0.0000 0.0000 0.1561 (  1882 PWs)   bands (ev):

  -115.9195-115.9193 -69.5869 -69.5658 -69.5301 -69.5301 -69.5265 -69.5264
    -8.4656  -7.9239   3.2283   3.2902   3.2910   3.3183   3.4197   3.4202
     4.3770   4.3771   4.5412   4.5414   5.6502   8.1815   8.6581   8.6592
     9.2036   9.2039  11.1518  13.8433  17.8796  21.4474  22.0377  22.0393
    22.8774  22.8804  26.2657  28.1468  28.1484  28.5230  29.7572  29.7579
    32.3743  32.5163  33.6120  33.6144  36.6307  36.6331  36.8005  38.0313
    40.6795  40.6815  41.9328  41.9332

          k = 0.0000 0.0000 0.2081 (  1882 PWs)   bands (ev):

  -115.9195-115.9194 -69.5847 -69.5691 -69.5295 -69.5295 -69.5293 -69.5292
    -8.3891  -8.0059   3.1813   3.2304   3.3029   3.3037   3.3932   3.3938
     4.4030   4.4031   4.5157   4.5158   6.0465   7.7647   8.7424   8.7434
     9.1242   9.1246  11.6651  13.5159  18.2089  20.6310  22.0853  22.0870
    22.6653  22.6681  26.5663  28.1427  28.5787  28.5804  29.9369  29.9370
    32.7090  33.4991  33.5003  33.6246  35.8607  35.8629  36.3509  38.5350
    40.8276  40.8293  41.5311  41.5319

          k = 0.0000 0.0000 0.2601 (  1900 PWs)   bands (ev):

  -115.9195-115.9195 -69.6328 -69.5881 -69.5483 -69.5482 -69.5326 -69.5325
    -8.2989  -8.1018   3.1028   3.1441   3.3080   3.3087   3.3591   3.3597
     4.4120   4.4120   4.4158   4.4159   6.4355   7.3450   8.8248   8.8256
     9.0256   9.0261  12.1728  13.1049  18.6389  19.8723  22.1675  22.1695
    22.4583  22.4608  26.9131  27.7110  29.0554  29.0571  29.8442  29.8451
    33.1582  33.6966  33.6969  34.0547  35.0289  35.0308  36.6542  38.5149
    40.9502  40.9517  41.2699  41.2710

          k = 0.0000 0.0000 0.3121 (  1894 PWs)   bands (ev):

  -115.9195-115.9195 -69.6037 -69.6037 -69.5347 -69.5347 -69.5346 -69.5346
    -8.2007  -8.2007   3.1076   3.1076   3.3416   3.3416   3.3423   3.3423
     4.4255   4.4255   4.4255   4.4255   6.9177   6.9177   8.9246   8.9246
     8.9253   8.9253  12.6623  12.6623  19.1960  19.1960  22.2963  22.2963
    22.2985  22.2985  27.2995  27.2995  29.5168  29.5168  29.5183  29.5183
    33.6952  33.6952  34.2689  34.2689  34.2701  34.2701  37.6989  37.6989
    41.0972  41.0972  41.0984  41.0984

          k = 0.0256 0.0444 0.3121 (  1900 PWs)   bands (ev):

  -115.9195-115.9195 -69.6022 -69.6022 -69.5447 -69.5447 -69.5434 -69.5434
    -8.1921  -8.1921   3.0939   3.0939   3.3257   3.3257   3.3428   3.3428
     4.4084   4.4084   4.4352   4.4352   6.9139   6.9139   8.8543   8.8543
     8.8988   8.8988  12.7289  12.7289  19.1918  19.1918  22.1413  22.1413
    22.3122  22.3122  27.4105  27.4105  29.4824  29.4824  29.5437  29.5437
    33.3646  33.3646  34.3303  34.3303  34.7012  34.7012  37.8518  37.8518
    40.9984  40.9984  41.1047  41.1047

          k = 0.0513 0.0888 0.3121 (  1896 PWs)   bands (ev):

  -115.9194-115.9194 -69.5871 -69.5871 -69.5443 -69.5443 -69.5410 -69.5410
    -8.1663  -8.1663   3.0855   3.0855   3.3409   3.3409   3.3697   3.3697
     4.4285   4.4285   4.4603   4.4603   6.9125   6.9125   8.6873   8.6873
     8.8388   8.8388  12.9150  12.9150  19.1762  19.1762  21.7722  21.7722
    22.3676  22.3676  27.5420  27.5420  29.3728  29.3728  29.8367  29.8367
    32.9873  32.9873  34.4892  34.4892  35.4055  35.4055  38.2703  38.2703
    40.7657  40.7657  41.1472  41.1472

          k = 0.0769 0.1332 0.3121 (  1908 PWs)   bands (ev):

  -115.9195-115.9195 -69.5980 -69.5980 -69.5680 -69.5680 -69.5389 -69.5389
    -8.1258  -8.1258   3.0428   3.0428   3.3462   3.3462   3.3933   3.3933
     4.4354   4.4354   4.4543   4.4543   6.8614   6.8614   8.4431   8.4431
     8.7134   8.7134  13.1762  13.1762  19.1164  19.1164  21.3394  21.3394
    22.4341  22.4341  27.4449  27.4449  29.1779  29.1779  30.5757  30.5757
    32.7614  32.7614  34.6610  34.6610  36.1463  36.1463  38.8119  38.8119
    40.5099  40.5099  41.2611  41.2611

          k = 0.1026 0.1776 0.3121 (  1910 PWs)   bands (ev):

  -115.9194-115.9194 -69.5963 -69.5963 -69.5732 -69.5732 -69.5374 -69.5374
    -8.0724  -8.0724   3.0142   3.0142   3.3723   3.3723   3.4432   3.4432
     4.4267   4.4267   4.4754   4.4754   6.7970   6.7970   8.2319   8.2319
     8.5517   8.5517  13.4954  13.4954  18.9977  18.9977  20.9638  20.9638
    22.4925  22.4925  27.2319  27.2319  28.9493  28.9493  31.5864  31.5864
    32.7830  32.7830  34.7982  34.7982  36.7807  36.7807  39.3024  39.3024
    40.3764  40.3764  41.5370  41.5370

          k = 0.1282 0.2221 0.3121 (  1926 PWs)   bands (ev):

  -115.9195-115.9195 -69.6130 -69.6130 -69.5901 -69.5901 -69.5515 -69.5515
    -8.0108  -8.0108   2.9687   2.9687   3.3888   3.3888   3.4989   3.4989
     4.4098   4.4098   4.4379   4.4379   6.6549   6.6549   8.0393   8.0393
     8.3491   8.3491  13.8325  13.8325  18.8045  18.8045  20.6676  20.6676
    22.5263  22.5263  27.0023  27.0023  28.7647  28.7647  32.2829  32.2829
    33.4120  33.4120  34.8816  34.8816  37.1445  37.1445  39.6187  39.6187
    40.4303  40.4303  42.0798  42.0798

          k = 0.1538 0.2665 0.3121 (  1926 PWs)   bands (ev):

  -115.9195-115.9195 -69.6140 -69.6140 -69.5824 -69.5824 -69.5535 -69.5535
    -7.9437  -7.9437   2.9694   2.9694   3.4212   3.4212   3.5562   3.5562
     4.4132   4.4132   4.4750   4.4750   6.4706   6.4706   7.9096   7.9096
     8.1437   8.1437  14.1885  14.1885  18.5807  18.5807  20.4177  20.4177
    22.5789  22.5789  26.8004  26.8004  28.7149  28.7149  32.5221  32.5221
    34.5321  34.5321  35.0056  35.0056  37.3229  37.3229  39.8049  39.8049
    40.6285  40.6285  42.9227  42.9227

          k = 0.1795 0.3109 0.3121 (  1916 PWs)   bands (ev):

  -115.9194-115.9194 -69.5891 -69.5891 -69.5742 -69.5742 -69.5524 -69.5524
    -7.8766  -7.8766   2.9923   2.9923   3.4661   3.4661   3.6330   3.6330
     4.4385   4.4385   4.5432   4.5432   6.2522   6.2522   7.7424   7.7424
     8.0183   8.0183  14.5628  14.5628  18.3658  18.3658  20.1351  20.1351
    22.6996  22.6996  26.5944  26.5944  28.8191  28.8191  32.6676  32.6676
    34.6668  34.6668  35.9534  35.9534  37.6856  37.6856  39.8896  39.8896
    40.9108  40.9108  43.8903  43.8903

          k = 0.2051 0.3553 0.3121 (  1918 PWs)   bands (ev):

  -115.9194-115.9194 -69.5831 -69.5831 -69.5781 -69.5781 -69.5582 -69.5582
    -7.8145  -7.8145   3.0325   3.0325   3.4981   3.4981   3.6819   3.6819
     4.4355   4.4355   4.5799   4.5799   6.0138   6.0138   7.4797   7.4797
     7.9886   7.9886  14.9458  14.9458  18.1770  18.1770  19.7811  19.7811
    22.9098  22.9098  26.3723  26.3723  29.0111  29.0111  32.7144  32.7144
    34.5283  34.5283  36.5855  36.5855  38.6853  38.6853  39.9479  39.9479
    41.2053  41.2053  44.1315  44.1315

          k = 0.2308 0.3997 0.3121 (  1922 PWs)   bands (ev):

  -115.9194-115.9194 -69.5890 -69.5890 -69.5713 -69.5713 -69.5680 -69.5680
    -7.7608  -7.7608   3.0813   3.0813   3.5337   3.5337   3.7165   3.7165
     4.4480   4.4480   4.6364   4.6364   5.7593   5.7593   7.1903   7.1903
     7.9966   7.9966  15.3513  15.3513  18.0211  18.0211  19.3564  19.3564
    23.2186  23.2186  26.1517  26.1517  29.1795  29.1795  32.6494  32.6494
    34.4872  34.4872  36.8457  36.8457  39.6650  39.6650  40.3079  40.3079
    41.6654  41.6654  43.7864  43.7864

          k = 0.2564 0.4441 0.3121 (  1926 PWs)   bands (ev):

  -115.9194-115.9194 -69.5908 -69.5908 -69.5813 -69.5813 -69.5685 -69.5685
    -7.7188  -7.7188   3.1441   3.1441   3.5384   3.5384   3.7959   3.7959
     4.3880   4.3880   4.7099   4.7099   5.5632   5.5632   6.9117   6.9117
     8.0114   8.0114  15.7750  15.7750  17.9028  17.9028  18.8968  18.8968
    23.6119  23.6119  25.9250  25.9250  29.1936  29.1936  32.5749  32.5749
    34.6102  34.6102  36.9373  36.9373  39.8673  39.8673  40.9204  40.9204
    42.6605  42.6605  43.7035  43.7035

          k = 0.2821 0.4885 0.3121 (  1924 PWs)   bands (ev):

  -115.9194-115.9194 -69.5843 -69.5843 -69.5821 -69.5821 -69.5685 -69.5685
    -7.6892  -7.6892   3.2077   3.2077   3.5274   3.5274   3.8803   3.8803
     4.3640   4.3640   4.7831   4.7831   5.4224   5.4224   6.6833   6.6833
     8.0298   8.0298  16.2265  16.2265  17.7889  17.7889  18.4392  18.4392
    24.0678  24.0678  25.6779  25.6779  29.0379  29.0379  32.6279  32.6279
    34.8114  34.8114  36.8558  36.8558  40.0216  40.0216  41.2005  41.2005
    43.3834  43.3834  44.3960  44.3960

          k = 0.3077 0.5329 0.3121 (  1920 PWs)   bands (ev):

  -115.9194-115.9194 -69.5787 -69.5787 -69.5748 -69.5748 -69.5703 -69.5703
    -7.6725  -7.6725   3.2699   3.2699   3.5031   3.5031   3.9563   3.9563
     4.3380   4.3380   4.8484   4.8484   5.3463   5.3463   6.5246   6.5246
     8.0369   8.0369  16.7050  16.7050  17.5921  17.5921  18.0875  18.0875
    24.5433  24.5433  25.3843  25.3843  28.8240  28.8240  32.7654  32.7654
    35.0125  35.0125  36.6448  36.6448  40.2365  40.2365  41.3472  41.3472
    43.6803  43.6803  44.5424  44.5424

          k = 0.3333 0.5774 0.3121 (  1908 PWs)   bands (ev):

  -115.9193-115.9193 -69.5819 -69.5819 -69.5523 -69.5523 -69.5522 -69.5522
    -7.6661  -7.6661   3.3099   3.3099   3.5019   3.5019   3.9834   3.9834
     4.3669   4.3669   4.9004   4.9004   5.3343   5.3343   6.4649   6.4649
     8.0525   8.0525  17.1180  17.1180  17.2829  17.2829  17.9821  17.9821
    24.9218  24.9218  25.0873  25.0873  28.7265  28.7265  32.8448  32.8448
    35.0949  35.0949  36.5267  36.5267  40.3923  40.3923  41.3628  41.3628
    43.7767  43.7767  44.7688  44.7688

          k = 0.3333 0.5774 0.2675 (  1908 PWs)   bands (ev):

  -115.9193-115.9193 -69.5714 -69.5714 -69.5647 -69.5563 -69.5562 -69.5520
    -7.6674  -7.6673   3.3211   3.3211   3.4251   3.5859   4.0019   4.0020
     4.3438   4.3604   4.8848   4.8849   5.3485   5.3486   6.2492   6.6968
     8.0162   8.0164  17.0817  17.0822  17.2300  17.3205  18.0810  18.0818
    24.2388  24.9849  24.9852  25.6823  28.8271  28.8272  32.7253  32.9868
    35.0647  35.0652  36.6007  36.6017  39.7537  40.6899  40.8643  40.8645
    43.8278  44.1864  44.1867  44.9545

          k = 0.3333 0.5774 0.2229 (  1908 PWs)   bands (ev):

  -115.9193-115.9193 -69.5748 -69.5747 -69.5638 -69.5540 -69.5540 -69.5464
    -7.6689  -7.6688   3.3636   3.3637   3.3680   3.6915   4.0020   4.0020
     4.3342   4.3776   4.8588   4.8589   5.3675   5.3677   6.0445   6.8977
     7.9148   7.9152  17.0067  17.0074  17.1771  17.3568  18.3442  18.3455
    23.6532  24.6993  24.6999  26.5175  29.0918  29.0919  32.6195  33.1618
    34.9818  34.9825  36.7908  36.7925  39.0667  39.9101  39.9104  40.2192
    43.7583  44.5130  44.5138  45.5404

          k = 0.3333 0.5774 0.1783 (  1911 PWs)   bands (ev):

  -115.9193-115.9193 -69.5796 -69.5733 -69.5733 -69.5533 -69.5533 -69.5494
    -7.6714  -7.6713   3.3016   3.4277   3.4278   3.8023   4.0492   4.0492
     4.3261   4.3442   4.7963   4.7964   5.3853   5.3855   5.8279   7.0686
     7.7880   7.7887  16.9370  16.9377  17.1135  17.3845  18.7044  18.7059
    23.1556  24.2868  24.2877  27.4094  29.4477  29.4479  32.5139  33.3477
    34.9093  34.9100  36.9935  36.9955  38.3838  38.9597  38.9603  39.1949
    44.3334  44.5064  44.5072  46.3268

          k = 0.3333 0.5774 0.1338 (  1929 PWs)   bands (ev):

  -115.9194-115.9194 -69.6022 -69.5898 -69.5897 -69.5738 -69.5738 -69.5699
    -7.6747  -7.6746   3.2316   3.4796   3.4798   3.8594   4.0718   4.0719
     4.2885   4.3032   4.6783   4.6783   5.4138   5.4140   5.6220   7.2143
     7.6118   7.6127  16.8780  16.8786  17.0466  17.3950  19.1071  19.1087
    22.7532  23.8231  23.8242  28.3232  29.8368  29.8371  32.3812  33.5557
    34.8747  34.8754  36.9811  36.9824  37.7762  38.0735  38.2943  38.2959
    44.4017  44.4026  45.0816  46.7200

          k = 0.3333 0.5774 0.0892 (  1935 PWs)   bands (ev):

  -115.9194-115.9194 -69.6022 -69.5968 -69.5968 -69.5844 -69.5843 -69.5728
    -7.6773  -7.6771   3.2026   3.5302   3.5304   3.9346   4.1048   4.1048
     4.2842   4.3035   4.6026   4.6027   5.4513   5.4516   5.4545   7.3347
     7.4449   7.4460  16.8396  16.8401  17.0011  17.3973  19.5138  19.5155
    22.4792  23.3758  23.3772  29.2275  30.2066  30.2070  32.1895  33.7706
    34.9183  34.9188  36.5154  36.5157  37.0838  37.2853  38.1602  38.1631
    44.2942  44.2952  45.8353  46.8329

          k = 0.3333 0.5774 0.0446 (  1929 PWs)   bands (ev):

  -115.9194-115.9194 -69.5920 -69.5881 -69.5881 -69.5767 -69.5767 -69.5729
    -7.6788  -7.6786   3.1989   3.5851   3.5853   3.9952   4.1803   4.1804
     4.2751   4.3294   4.5385   4.5386   5.3576   5.4898   5.4901   7.3501
     7.3513   7.4134  16.8215  16.8220  16.9746  17.4034  19.8464  19.8481
    22.3174  23.0287  23.0302  30.0194  30.4828  30.4831  31.9232  33.9395
    35.0814  35.0816  35.9177  35.9180  36.3928  36.9522  38.2540  38.2573
    44.2064  44.2073  46.4055  46.8691

          k = 0.3333 0.5774 0.0000 (  1923 PWs)   bands (ev):

  -115.9194-115.9194 -69.5833 -69.5817 -69.5816 -69.5718 -69.5718 -69.5602
    -7.6791  -7.6788   3.2315   3.5977   3.5979   4.0316   4.2314   4.2314
     4.2764   4.3571   4.5000   4.5002   5.3512   5.5081   5.5084   7.3050
     7.3061   7.4394  16.8176  16.8181  16.9689  17.4146  19.9858  19.9874
    22.2716  22.8890  22.8906  30.4181  30.5845  30.5848  31.7299  34.0147
    35.3282  35.3291  35.5094  35.5108  36.1423  36.8428  38.2924  38.2958
    44.1768  44.1778  46.6310  46.8771

 ------ SPIN DOWN ----------


          k = 0.0000 0.0000 0.3121 (  1894 PWs)   bands (ev):

  -115.9195-115.9195 -69.6037 -69.6037 -69.5347 -69.5347 -69.5346 -69.5346
    -8.2007  -8.2007   3.1076   3.1076   3.3416   3.3416   3.3423   3.3423
     4.4255   4.4255   4.4255   4.4255   6.9177   6.9177   8.9246   8.9246
     8.9253   8.9253  12.6623  12.6623  19.1960  19.1960  22.2963  22.2963
    22.2985  22.2985  27.2995  27.2995  29.5168  29.5168  29.5183  29.5183
    33.6952  33.6952  34.2689  34.2689  34.2701  34.2701  37.6989  37.6989
    41.0972  41.0972  41.0984  41.0984

          k = 0.0500 0.0289 0.3121 (  1900 PWs)   bands (ev):

  -115.9195-115.9195 -69.6010 -69.6010 -69.5449 -69.5449 -69.5436 -69.5436
    -8.1897  -8.1897   3.0911   3.0911   3.3354   3.3354   3.3362   3.3362
     4.4178   4.4178   4.4347   4.4347   6.9114   6.9114   8.8395   8.8395
     8.8883   8.8883  12.7467  12.7467  19.1904  19.1904  22.1026  22.1026
    22.3188  22.3188  27.4323  27.4323  29.5162  29.5162  29.5177  29.5177
    33.3102  33.3102  34.3549  34.3549  34.7795  34.7795  37.8916  37.8916
    40.9776  40.9776  41.1053  41.1053

          k = 0.1000 0.0577 0.3121 (  1896 PWs)   bands (ev):

  -115.9194-115.9194 -69.5893 -69.5893 -69.5411 -69.5411 -69.5403 -69.5403
    -8.1573  -8.1573   3.0748   3.0748   3.3590   3.3590   3.3718   3.3718
     4.4341   4.4341   4.4588   4.4588   6.9082   6.9082   8.6386   8.6386
     8.8139   8.8139  12.9764  12.9764  19.1637  19.1637  21.6619  21.6619
    22.3921  22.3921  27.4988  27.4988  29.5460  29.5460  29.8081  29.8081
    32.8743  32.8743  34.6153  34.6153  35.5554  35.5554  38.3927  38.3927
    40.7217  40.7217  41.1504  41.1504

          k = 0.1500 0.0866 0.3121 (  1914 PWs)   bands (ev):

  -115.9195-115.9195 -69.5946 -69.5946 -69.5690 -69.5690 -69.5579 -69.5579
    -8.1070  -8.1070   3.0273   3.0273   3.3717   3.3717   3.3724   3.3724
     4.4238   4.4238   4.4470   4.4470   6.8471   6.8471   8.3489   8.3489
     8.6663   8.6663  13.2883  13.2883  19.0721  19.0721  21.1873  21.1873
    22.4853  22.4853  27.1515  27.1515  29.6178  29.6178  30.5922  30.5922
    32.5833  32.5833  34.9744  34.9744  36.3370  36.3370  38.9028  38.9028
    40.6099  40.6099  41.2084  41.2084

          k = 0.2000 0.1155 0.3121 (  1922 PWs)   bands (ev):

  -115.9195-115.9195 -69.5942 -69.5942 -69.5861 -69.5861 -69.5621 -69.5621
    -8.0423  -8.0423   2.9923   2.9923   3.4115   3.4115   3.4269   3.4269
     4.4261   4.4261   4.4300   4.4300   6.7254   6.7254   8.0971   8.0971
     8.4944   8.4944  13.6370  13.6370  18.8685  18.8685  20.8495  20.8495
    22.6012  22.6012  26.6197  26.6197  29.7920  29.7920  31.3638  31.3638
    32.7062  32.7062  35.3836  35.3836  37.0078  37.0078  39.0971  39.0971
    40.9924  40.9924  41.3248  41.3248

          k = 0.2500 0.1443 0.3121 (  1918 PWs)   bands (ev):

  -115.9194-115.9194 -69.5963 -69.5963 -69.5725 -69.5725 -69.5572 -69.5572
    -7.9694  -7.9694   2.9636   2.9636   3.4848   3.4848   3.4916   3.4916
     4.4434   4.4434   4.4653   4.4653   6.5210   6.5210   7.9417   7.9417
     8.3239   8.3239  13.9836  13.9836  18.5731  18.5731  20.6817  20.6817
    22.7084  22.7084  26.1170  26.1170  30.0845  30.0845  31.4850  31.4850
    33.5940  33.5940  35.7698  35.7698  37.3883  37.3883  39.3306  39.3306
    41.4956  41.4956  41.6186  41.6186

          k = 0.3000 0.1732 0.3121 (  1918 PWs)   bands (ev):

  -115.9194-115.9194 -69.5905 -69.5905 -69.5742 -69.5742 -69.5550 -69.5550
    -7.8950  -7.8950   2.9477   2.9477   3.5496   3.5496   3.5607   3.5607
     4.4606   4.4606   4.5005   4.5005   6.2227   6.2227   7.8765   7.8765
     8.1349   8.1349  14.2909  14.2909  18.2507  18.2507  20.6058  20.6058
    22.7995  22.7995  25.7305  25.7305  30.4948  30.4948  31.3597  31.3597
    34.5032  34.5032  36.0376  36.0376  37.6554  37.6554  39.8582  39.8582
    41.6877  41.6877  42.3013  42.3013

          k = 0.3500 0.2021 0.3121 (  1924 PWs)   bands (ev):

  -115.9194-115.9194 -69.5988 -69.5988 -69.5761 -69.5761 -69.5611 -69.5611
    -7.8275  -7.8275   2.9356   2.9356   3.6040   3.6040   3.6303   3.6303
     4.4600   4.4600   4.5192   4.5192   5.8789   5.8789   7.8684   7.8684
     7.9644   7.9644  14.5439  14.5439  17.9633  17.9633  20.5465  20.5465
    22.8587  22.8587  25.4957  25.4957  30.9946  30.9946  31.2019  31.2019
    34.8420  34.8420  36.1106  36.1106  38.3240  38.3240  40.4551  40.4551
    41.8261  41.8261  43.1075  43.1075

          k = 0.4000 0.2309 0.3121 (  1928 PWs)   bands (ev):

  -115.9194-115.9194 -69.5919 -69.5919 -69.5833 -69.5833 -69.5699 -69.5699
    -7.7728  -7.7728   2.9399   2.9399   3.6471   3.6471   3.7054   3.7054
     4.4670   4.4670   4.5492   4.5492   5.5667   5.5667   7.8246   7.8246
     7.8676   7.8676  14.7332  14.7332  17.7516  17.7516  20.4839  20.4839
    22.8864  22.8864  25.3993  25.3993  31.0678  31.0678  31.5384  31.5384
    34.7513  34.7513  35.9978  35.9978  39.1972  39.1972  41.1332  41.1332
    41.8320  41.8320  43.9957  43.9957

          k = 0.4500 0.2598 0.3121 (  1918 PWs)   bands (ev):

  -115.9194-115.9194 -69.5851 -69.5851 -69.5709 -69.5709 -69.5573 -69.5573
    -7.7365  -7.7365   2.9661   2.9661   3.6756   3.6756   3.8022   3.8022
     4.4754   4.4754   4.6169   4.6169   5.3497   5.3497   7.7397   7.7397
     7.8869   7.8869  14.8525  14.8525  17.6338  17.6338  20.4392  20.4392
    22.9090  22.9090  25.3870  25.3870  30.9776  30.9776  31.9896  31.9896
    34.5925  34.5925  35.7929  35.7929  39.7412  39.7412  41.7605  41.7605
    42.0153  42.0153  44.4961  44.4961

          k = 0.5000 0.2887 0.3121 (  1924 PWs)   bands (ev):

  -115.9194-115.9194 -69.5895 -69.5895 -69.5732 -69.5732 -69.5713 -69.5713
    -7.7243  -7.7243   2.9595   2.9595   3.6827   3.6827   3.8017   3.8017
     4.4767   4.4767   4.6295   4.6295   5.2413   5.2413   7.7057   7.7057
     7.8922   7.8922  14.8885  14.8885  17.5929  17.5929  20.4172  20.4172
    22.9125  22.9125  25.3815  25.3815  30.9355  30.9355  32.1756  32.1756
    34.5180  34.5180  35.6866  35.6866  39.8770  39.8770  41.7201  41.7201
    42.5460  42.5460  44.4032  44.4032

          k = 0.5000 0.2887 0.2497 (  1924 PWs)   bands (ev):

  -115.9194-115.9194 -69.5933 -69.5885 -69.5876 -69.5762 -69.5644 -69.5577
    -7.7614  -7.6886   2.9581   3.0165   3.6244   3.7161   3.8169   3.8341
     4.4563   4.4671   4.5811   4.6560   5.2120   5.3025   7.4813   7.5838
     7.9203   8.1004  14.6781  15.2043  17.4670  17.6659  19.9640  21.0105
    22.7746  23.0540  24.4787  26.4396  30.5373  31.0900  31.3244  33.1366
    33.9473  35.1314  35.4967  35.9304  39.4991  40.0754  41.2616  42.0707
    42.3241  42.3782  43.5763  45.6572

          k = 0.5000 0.2887 0.1873 (  1924 PWs)   bands (ev):

  -115.9194-115.9194 -69.5915 -69.5894 -69.5781 -69.5742 -69.5739 -69.5618
    -7.7976  -7.6588   2.9785   3.0989   3.5680   3.8093   3.8246   3.8370
     4.4688   4.5204   4.5240   4.6552   5.1762   5.3830   7.1958   7.2899
     8.1129   8.1434  14.6212  15.5428  17.3019  17.6742  19.7278  21.5628
    22.6481  23.2018  23.9187  27.4063  30.2659  30.6337  30.6698  33.7153
    34.2115  35.3963  35.5763  36.2155  39.1219  39.3701  40.8434  41.9950
    42.2310  42.2531  43.9643  45.0081

          k = 0.5000 0.2887 0.1248 (  1928 PWs)   bands (ev):

  -115.9194-115.9194 -69.5954 -69.5894 -69.5875 -69.5848 -69.5786 -69.5680
    -7.8266  -7.6369   3.0055   3.2076   3.5202   3.8537   3.8588   3.8648
     4.4432   4.4489   4.4999   4.6851   5.1828   5.4411   6.7962   7.1074
     8.1153   8.2704  14.7085  15.8242  17.1107  17.6312  19.6923  21.7512
    22.5489  23.3094  24.0219  27.8816  29.7681  30.1123  30.5983  33.8052
    35.0503  35.5420  35.6201  36.4952  38.2240  38.8536  40.5234  42.1418
    42.1710  42.3418  44.0577  44.0943

          k = 0.5000 0.2887 0.0624 (  1920 PWs)   bands (ev):

  -115.9194-115.9194 -69.5910 -69.5850 -69.5841 -69.5744 -69.5661 -69.5588
    -7.8455  -7.6228   3.0484   3.3056   3.5018   3.9031   3.9080   3.9088
     4.4155   4.4473   4.5222   4.7103   5.2351   5.5081   6.4975   6.9970
     8.0321   8.3712  14.8532  16.0045  16.9359  17.5829  19.7601  21.6389
    22.4921  23.3869  24.6217  27.8628  28.8202  29.8016  31.5828  33.9564
    34.9522  35.1767  36.2692  36.7123  37.6630  38.6901  40.4425  41.9466
    42.3999  42.5053  42.6607  43.8341

          k = 0.5000 0.2887 0.0000 (  1906 PWs)   bands (ev):

  -115.9194-115.9193 -69.5740 -69.5666 -69.5624 -69.5596 -69.5551 -69.5491
    -7.8515  -7.6173   3.0762   3.3608   3.5112   3.9247   3.9532   3.9667
     4.3722   4.4892   4.5990   4.7302   5.2828   5.5430   6.3687   6.9827
     7.9934   8.4196  14.9270  16.0725  16.8686  17.5582  19.8087  21.5736
    22.4780  23.4330  24.9912  27.8041  28.3590  29.7073  32.3227  34.0258
    34.2549  35.1943  36.6319  36.8001  37.5774  38.6274  40.5860  41.8670
    42.0077  42.4943  42.5903  43.6958

          k = 0.4545 0.2624 0.0000 (  1916 PWs)   bands (ev):

  -115.9194-115.9194 -69.5856 -69.5777 -69.5762 -69.5757 -69.5636 -69.5525
    -7.8733  -7.6163   3.0471   3.3476   3.4966   3.8890   3.9203   3.9524
     4.3629   4.4366   4.5785   4.7644   5.1993   5.6156   6.3774   6.9974
     8.0533   8.4241  14.7317  16.2306  16.8666  17.5812  19.8344  21.5363
    22.4934  23.3980  24.9998  27.7837  28.4021  29.5253  32.3575  33.8238
    34.5620  35.2701  36.6260  36.7592  37.6349  38.5441  40.2793  40.9160
    41.7273  42.1018  43.2224  43.4943

          k = 0.4091 0.2362 0.0000 (  1922 PWs)   bands (ev):

  -115.9194-115.9194 -69.6026 -69.5927 -69.5802 -69.5744 -69.5650 -69.5532
    -7.9303  -7.6161   3.0146   3.3526   3.4798   3.8019   3.8541   3.9713
     4.3061   4.4086   4.5739   4.8193   5.1659   5.7046   6.4590   7.0872
     8.1775   8.4774  14.3115  16.5548  16.8618  17.6539  19.9223  21.4898
    22.5442  23.3488  25.0123  27.7034  28.5655  29.0702  32.4563  33.6964
    34.9156  35.4005  36.4998  36.8336  37.8191  38.3155  39.0159  40.5398
    40.8821  41.3148  42.3482  44.8307

          k = 0.3636 0.2099 0.0000 (  1916 PWs)   bands (ev):

  -115.9194-115.9194 -69.5954 -69.5903 -69.5794 -69.5752 -69.5483 -69.5393
    -8.0106  -7.6242   2.9909   3.3545   3.4751   3.7266   3.8478   4.0127
     4.2502   4.4118   4.5509   4.8091   5.2017   5.8220   6.6649   7.2506
     8.3602   8.5945  13.8239  16.7462  16.9390  17.8195  20.0479  21.5182
    22.6141  23.2992  25.0064  27.5746  28.4735  28.8693  32.5901  33.7409
    35.0285  35.3631  36.1877  37.0479  37.8551  38.0644  38.1132  39.2808
    39.8705  41.4203  41.9942  45.0449

          k = 0.3182 0.1837 0.0000 (  1914 PWs)   bands (ev):

  -115.9195-115.9193 -69.6178 -69.5839 -69.5794 -69.5646 -69.5404 -69.5331
    -8.1050  -7.6413   2.9717   3.3657   3.4585   3.6466   3.7678   4.0302
     4.1704   4.4044   4.5462   4.7977   5.1738   6.0888   6.9136   7.4379
     8.5557   8.7043  13.2940  16.5917  17.1834  18.1000  20.2402  21.7183
    22.6387  23.2898  24.9355  27.4717  27.8546  29.2756  32.6761  33.8553
    34.7183  35.1308  35.4125  37.0321  37.3178  37.7936  37.8269  39.0382
    39.1356  40.6870  42.8174  43.3834

          k = 0.2727 0.1575 0.0000 (  1914 PWs)   bands (ev):

  -115.9195-115.9193 -69.6044 -69.5857 -69.5805 -69.5645 -69.5526 -69.5364
    -8.2051  -7.6672   3.0108   3.3496   3.4199   3.5719   3.6518   3.9465
     4.1982   4.3796   4.5611   4.8067   5.0351   6.4774   7.2391   7.6242
     8.7354   8.8165  12.7494  16.3077  17.3397  18.5210  20.5394  22.1036
    22.5755  23.3479  24.7952  27.2845  27.4402  29.7520  32.5979  33.7177
    34.0443  34.2620  34.9296  36.1983  37.4119  37.5444  37.9631  38.2073
    39.6660  40.3069  41.9195  43.7052

          k = 0.2273 0.1312 0.0000 (  1902 PWs)   bands (ev):

  -115.9195-115.9193 -69.5730 -69.5692 -69.5620 -69.5517 -69.5500 -69.5477
    -8.3027  -7.6980   3.0538   3.3679   3.3700   3.5318   3.6023   3.8949
     4.2495   4.3470   4.5561   4.8372   4.9094   6.9230   7.6320   7.8517
     8.9085   8.9421  12.2176  15.9138  17.4252  19.0730  20.9640  22.4590
    22.6126  23.4426  24.6425  26.8467  27.4979  30.2031  32.2208  32.9086
    33.1530  33.4238  34.6907  36.0148  37.1848  37.3101  37.6829  38.3136
    39.4471  40.7912  41.0018  44.5378

          k = 0.1818 0.1050 0.0000 (  1898 PWs)   bands (ev):

  -115.9195-115.9193 -69.5760 -69.5676 -69.5594 -69.5472 -69.5441 -69.5420
    -8.3919  -7.7312   3.1047   3.3393   3.3734   3.4588   3.5418   3.8076
     4.2848   4.3499   4.5593   4.7965   4.8623   7.3628   7.9798   8.0541
     9.0365   9.0658  11.6772  15.4637  17.4615  19.7112  21.4886  22.3206
    23.1145  23.4985  24.5997  26.6357  27.5848  30.2767  31.5525  32.0785
    32.1232  32.8431  34.5097  35.8816  36.4226  37.4433  37.7610  38.7569
    38.9235  40.2186  41.8308  45.1853

          k = 0.1364 0.0787 0.0000 (  1900 PWs)   bands (ev):

  -115.9195-115.9194 -69.5748 -69.5724 -69.5637 -69.5619 -69.5420 -69.5373
    -8.4670  -7.7617   3.1407   3.2921   3.3811   3.4223   3.5039   3.7244
     4.3010   4.3414   4.5219   4.6616   4.8837   7.8002   8.2359   8.3311
     9.1462   9.1584  11.1564  15.0161  17.4733  20.4138  22.0628  22.1906
    23.3690  23.4668  24.8843  26.6689  27.6380  29.6800  30.8466  31.0756
    31.4822  32.8396  34.3809  34.6659  36.8200  37.7239  37.7918  38.2934
    39.2530  39.9441  42.7174  45.3487

          k = 0.0909 0.0525 0.0000 (  1882 PWs)   bands (ev):

  -115.9195-115.9193 -69.5637 -69.5501 -69.5423 -69.5388 -69.5257 -69.5193
    -8.5237  -7.7855   3.2012   3.2813   3.4016   3.4444   3.4795   3.6733
     4.3523   4.3571   4.5357   4.6334   4.9554   8.1840   8.3903   8.7122
     9.2388   9.2442  10.6668  14.6369  17.4858  21.1346  22.0948  22.6427
    23.3606  23.3803  25.4131  26.9286  27.5444  29.1104  30.1124  30.1863
    30.9044  33.1360  33.7120  34.2972  37.2837  37.6409  37.7878  37.9690
    39.7621  39.9846  43.5435  44.6916

          k = 0.0455 0.0262 0.0000 (  1894 PWs)   bands (ev):

  -115.9195-115.9193 -69.5718 -69.5612 -69.5575 -69.5530 -69.5436 -69.5276
    -8.5596  -7.8010   3.2175   3.2476   3.4019   3.4094   3.4156   3.6376
     4.3301   4.3403   4.4668   4.5258   5.0103   8.4181   8.4710   9.0643
     9.2747   9.2807  10.2200  14.3762  17.4763  21.7360  22.0267  23.0796
    23.2724  23.2884  25.7081  27.2871  27.4437  28.8968  29.4447  29.5373
    30.4298  32.5322  33.9797  34.2220  37.0517  37.6117  37.7605  38.0518
    40.1858  40.2199  44.0919  44.0955

          k = 0.0000 0.0000 0.0000 (  1907 PWs)   bands (ev):

  -115.9195-115.9194 -69.5867 -69.5867 -69.5842 -69.5549 -69.5548 -69.5319
    -8.5717  -7.8073   3.2161   3.2170   3.3992   3.4125   3.4129   3.6191
     4.3156   4.3158   4.4230   4.4232   4.9917   8.4791   8.4802   9.2674
     9.2674   9.2874   9.9768  14.2823  17.4561  21.9959  21.9971  23.2212
    23.2515  23.2549  25.7096  27.4930  27.4944  29.0304  29.1125  29.1137
    30.2636  32.2093  34.1970  34.2006  36.7792  37.7512  37.7533  38.0395
    40.3576  40.3601  43.8295  43.8322

          k = 0.0000 0.0000 0.0520 (  1900 PWs)   bands (ev):

  -115.9195-115.9194 -69.5921 -69.5615 -69.5614 -69.5478 -69.5478 -69.5428
    -8.5593  -7.8206   3.2400   3.2408   3.3630   3.4118   3.4123   3.5668
     4.3317   4.3319   4.4471   4.4474   5.0537   8.5307   8.5319   9.0606
     9.2798   9.2799  10.2275  14.2281  17.5249  22.0053  22.0066  22.9377
    23.1986  23.2020  25.8044  27.5716  27.5730  28.9739  29.2058  29.2069
    30.5709  32.1945  34.1084  34.1120  36.9492  37.6270  37.6293  37.8549
    40.4075  40.4100  43.3149  43.3164

          k = 0.0000 0.0000 0.1040 (  1900 PWs)   bands (ev):

  -115.9196-115.9193 -69.6042 -69.5802 -69.5543 -69.5542 -69.5365 -69.5364
    -8.5239  -7.8610   3.2545   3.2554   3.2701   3.4037   3.4041   3.4348
     4.3179   4.3180   4.5227   4.5228   5.2892   8.5786   8.5798   8.5846
     9.2460   9.2462  10.6530  14.0836  17.6506  22.0078  22.0092  22.2509
    23.0670  23.0702  26.0054  27.7836  27.7851  28.8077  29.4519  29.4529
    31.3936  32.2174  33.8698  33.8729  37.2334  37.2358  37.3838  37.4204
    40.5245  40.5268  42.5360  42.5363

          k = 0.0000 0.0000 0.1561 (  1882 PWs)   bands (ev):

  -115.9195-115.9193 -69.5869 -69.5658 -69.5301 -69.5301 -69.5265 -69.5264
    -8.4656  -7.9239   3.2283   3.2902   3.2910   3.3183   3.4197   3.4202
     4.3770   4.3771   4.5412   4.5414   5.6502   8.1815   8.6581   8.6592
     9.2036   9.2039  11.1518  13.8433  17.8796  21.4474  22.0377  22.0393
    22.8774  22.8804  26.2657  28.1468  28.1484  28.5230  29.7572  29.7579
    32.3743  32.5163  33.6120  33.6144  36.6307  36.6331  36.8005  38.0313
    40.6795  40.6815  41.9328  41.9332

          k = 0.0000 0.0000 0.2081 (  1882 PWs)   bands (ev):

  -115.9195-115.9194 -69.5847 -69.5691 -69.5295 -69.5295 -69.5293 -69.5292
    -8.3891  -8.0059   3.1813   3.2304   3.3029   3.3037   3.3932   3.3938
     4.4030   4.4031   4.5157   4.5158   6.0465   7.7647   8.7424   8.7434
     9.1242   9.1246  11.6651  13.5159  18.2089  20.6310  22.0853  22.0870
    22.6653  22.6681  26.5663  28.1427  28.5787  28.5804  29.9369  29.9370
    32.7090  33.4991  33.5003  33.6246  35.8607  35.8629  36.3509  38.5350
    40.8276  40.8293  41.5311  41.5319

          k = 0.0000 0.0000 0.2601 (  1900 PWs)   bands (ev):

  -115.9195-115.9195 -69.6328 -69.5881 -69.5483 -69.5482 -69.5326 -69.5325
    -8.2989  -8.1018   3.1028   3.1441   3.3080   3.3087   3.3591   3.3597
     4.4120   4.4120   4.4158   4.4159   6.4355   7.3450   8.8248   8.8256
     9.0256   9.0261  12.1728  13.1049  18.6389  19.8723  22.1675  22.1695
    22.4583  22.4608  26.9131  27.7110  29.0554  29.0571  29.8442  29.8451
    33.1582  33.6966  33.6969  34.0547  35.0289  35.0308  36.6542  38.5149
    40.9502  40.9517  41.2699  41.2710

          k = 0.0000 0.0000 0.3121 (  1894 PWs)   bands (ev):

  -115.9195-115.9195 -69.6037 -69.6037 -69.5347 -69.5347 -69.5346 -69.5346
    -8.2007  -8.2007   3.1076   3.1076   3.3416   3.3416   3.3423   3.3423
     4.4255   4.4255   4.4255   4.4255   6.9177   6.9177   8.9246   8.9246
     8.9253   8.9253  12.6623  12.6623  19.1960  19.1960  22.2963  22.2963
    22.2985  22.2985  27.2995  27.2995  29.5168  29.5168  29.5183  29.5183
    33.6952  33.6952  34.2689  34.2689  34.2701  34.2701  37.6989  37.6989
    41.0972  41.0972  41.0984  41.0984

          k = 0.0256 0.0444 0.3121 (  1900 PWs)   bands (ev):

  -115.9195-115.9195 -69.6022 -69.6022 -69.5447 -69.5447 -69.5434 -69.5434
    -8.1921  -8.1921   3.0939   3.0939   3.3257   3.3257   3.3428   3.3428
     4.4084   4.4084   4.4352   4.4352   6.9139   6.9139   8.8543   8.8543
     8.8988   8.8988  12.7289  12.7289  19.1918  19.1918  22.1413  22.1413
    22.3122  22.3122  27.4105  27.4105  29.4824  29.4824  29.5437  29.5437
    33.3646  33.3646  34.3303  34.3303  34.7012  34.7012  37.8518  37.8518
    40.9984  40.9984  41.1047  41.1047

          k = 0.0513 0.0888 0.3121 (  1896 PWs)   bands (ev):

  -115.9194-115.9194 -69.5871 -69.5871 -69.5443 -69.5443 -69.5410 -69.5410
    -8.1663  -8.1663   3.0855   3.0855   3.3409   3.3409   3.3697   3.3697
     4.4285   4.4285   4.4603   4.4603   6.9125   6.9125   8.6873   8.6873
     8.8388   8.8388  12.9150  12.9150  19.1762  19.1762  21.7722  21.7722
    22.3676  22.3676  27.5420  27.5420  29.3728  29.3728  29.8367  29.8367
    32.9873  32.9873  34.4892  34.4892  35.4055  35.4055  38.2703  38.2703
    40.7657  40.7657  41.1472  41.1472

          k = 0.0769 0.1332 0.3121 (  1908 PWs)   bands (ev):

  -115.9195-115.9195 -69.5980 -69.5980 -69.5680 -69.5680 -69.5389 -69.5389
    -8.1258  -8.1258   3.0428   3.0428   3.3462   3.3462   3.3933   3.3933
     4.4354   4.4354   4.4543   4.4543   6.8614   6.8614   8.4431   8.4431
     8.7134   8.7134  13.1762  13.1762  19.1164  19.1164  21.3394  21.3394
    22.4341  22.4341  27.4449  27.4449  29.1779  29.1779  30.5757  30.5757
    32.7614  32.7614  34.6610  34.6610  36.1463  36.1463  38.8119  38.8119
    40.5099  40.5099  41.2611  41.2611

          k = 0.1026 0.1776 0.3121 (  1910 PWs)   bands (ev):

  -115.9194-115.9194 -69.5963 -69.5963 -69.5732 -69.5732 -69.5374 -69.5374
    -8.0724  -8.0724   3.0142   3.0142   3.3723   3.3723   3.4432   3.4432
     4.4267   4.4267   4.4754   4.4754   6.7970   6.7970   8.2319   8.2319
     8.5517   8.5517  13.4954  13.4954  18.9977  18.9977  20.9638  20.9638
    22.4925  22.4925  27.2319  27.2319  28.9493  28.9493  31.5864  31.5864
    32.7830  32.7830  34.7982  34.7982  36.7807  36.7807  39.3024  39.3024
    40.3764  40.3764  41.5370  41.5370

          k = 0.1282 0.2221 0.3121 (  1926 PWs)   bands (ev):

  -115.9195-115.9195 -69.6130 -69.6130 -69.5901 -69.5901 -69.5515 -69.5515
    -8.0108  -8.0108   2.9687   2.9687   3.3888   3.3888   3.4989   3.4989
     4.4098   4.4098   4.4379   4.4379   6.6549   6.6549   8.0393   8.0393
     8.3491   8.3491  13.8325  13.8325  18.8045  18.8045  20.6676  20.6676
    22.5263  22.5263  27.0023  27.0023  28.7647  28.7647  32.2829  32.2829
    33.4120  33.4120  34.8816  34.8816  37.1445  37.1445  39.6187  39.6187
    40.4303  40.4303  42.0798  42.0798

          k = 0.1538 0.2665 0.3121 (  1926 PWs)   bands (ev):

  -115.9195-115.9195 -69.6140 -69.6140 -69.5824 -69.5824 -69.5535 -69.5535
    -7.9437  -7.9437   2.9694   2.9694   3.4212   3.4212   3.5562   3.5562
     4.4132   4.4132   4.4750   4.4750   6.4706   6.4706   7.9096   7.9096
     8.1437   8.1437  14.1885  14.1885  18.5807  18.5807  20.4177  20.4177
    22.5789  22.5789  26.8004  26.8004  28.7149  28.7149  32.5221  32.5221
    34.5321  34.5321  35.0056  35.0056  37.3229  37.3229  39.8049  39.8049
    40.6285  40.6285  42.9227  42.9227

          k = 0.1795 0.3109 0.3121 (  1916 PWs)   bands (ev):

  -115.9194-115.9194 -69.5891 -69.5891 -69.5742 -69.5742 -69.5524 -69.5524
    -7.8766  -7.8766   2.9923   2.9923   3.4661   3.4661   3.6330   3.6330
     4.4385   4.4385   4.5432   4.5432   6.2522   6.2522   7.7424   7.7424
     8.0183   8.0183  14.5628  14.5628  18.3658  18.3658  20.1351  20.1351
    22.6996  22.6996  26.5944  26.5944  28.8191  28.8191  32.6676  32.6676
    34.6668  34.6668  35.9534  35.9534  37.6856  37.6856  39.8896  39.8896
    40.9108  40.9108  43.8903  43.8903

          k = 0.2051 0.3553 0.3121 (  1918 PWs)   bands (ev):

  -115.9194-115.9194 -69.5831 -69.5831 -69.5781 -69.5781 -69.5582 -69.5582
    -7.8145  -7.8145   3.0325   3.0325   3.4981   3.4981   3.6819   3.6819
     4.4355   4.4355   4.5799   4.5799   6.0138   6.0138   7.4797   7.4797
     7.9886   7.9886  14.9458  14.9458  18.1770  18.1770  19.7811  19.7811
    22.9098  22.9098  26.3723  26.3723  29.0111  29.0111  32.7144  32.7144
    34.5283  34.5283  36.5855  36.5855  38.6853  38.6853  39.9479  39.9479
    41.2053  41.2053  44.1315  44.1315

          k = 0.2308 0.3997 0.3121 (  1922 PWs)   bands (ev):

  -115.9194-115.9194 -69.5890 -69.5890 -69.5713 -69.5713 -69.5680 -69.5680
    -7.7608  -7.7608   3.0813   3.0813   3.5337   3.5337   3.7165   3.7165
     4.4480   4.4480   4.6364   4.6364   5.7593   5.7593   7.1903   7.1903
     7.9966   7.9966  15.3513  15.3513  18.0211  18.0211  19.3564  19.3564
    23.2186  23.2186  26.1517  26.1517  29.1795  29.1795  32.6495  32.6495
    34.4872  34.4872  36.8457  36.8457  39.6650  39.6650  40.3079  40.3079
    41.6654  41.6654  43.7864  43.7864

          k = 0.2564 0.4441 0.3121 (  1926 PWs)   bands (ev):

  -115.9194-115.9194 -69.5908 -69.5908 -69.5813 -69.5813 -69.5685 -69.5685
    -7.7188  -7.7188   3.1441   3.1441   3.5384   3.5384   3.7959   3.7959
     4.3880   4.3880   4.7099   4.7099   5.5632   5.5632   6.9117   6.9117
     8.0114   8.0114  15.7750  15.7750  17.9028  17.9028  18.8968  18.8968
    23.6119  23.6119  25.9250  25.9250  29.1936  29.1936  32.5749  32.5749
    34.6102  34.6102  36.9373  36.9373  39.8673  39.8673  40.9204  40.9204
    42.6605  42.6605  43.7035  43.7035

          k = 0.2821 0.4885 0.3121 (  1924 PWs)   bands (ev):

  -115.9194-115.9194 -69.5843 -69.5843 -69.5821 -69.5821 -69.5685 -69.5685
    -7.6892  -7.6892   3.2077   3.2077   3.5274   3.5274   3.8803   3.8803
     4.3640   4.3640   4.7831   4.7831   5.4224   5.4224   6.6833   6.6833
     8.0298   8.0298  16.2265  16.2265  17.7889  17.7889  18.4392  18.4392
    24.0678  24.0678  25.6779  25.6779  29.0379  29.0379  32.6279  32.6279
    34.8114  34.8114  36.8558  36.8558  40.0216  40.0216  41.2005  41.2005
    43.3834  43.3834  44.3960  44.3960

          k = 0.3077 0.5329 0.3121 (  1920 PWs)   bands (ev):

  -115.9194-115.9194 -69.5787 -69.5787 -69.5748 -69.5748 -69.5703 -69.5703
    -7.6725  -7.6725   3.2699   3.2699   3.5031   3.5031   3.9563   3.9563
     4.3380   4.3380   4.8484   4.8484   5.3463   5.3463   6.5246   6.5246
     8.0369   8.0369  16.7050  16.7050  17.5921  17.5921  18.0875  18.0875
    24.5433  24.5433  25.3843  25.3843  28.8240  28.8240  32.7654  32.7654
    35.0125  35.0125  36.6448  36.6448  40.2365  40.2365  41.3472  41.3472
    43.6803  43.6803  44.5424  44.5424

          k = 0.3333 0.5774 0.3121 (  1908 PWs)   bands (ev):

  -115.9193-115.9193 -69.5819 -69.5819 -69.5523 -69.5523 -69.5522 -69.5522
    -7.6661  -7.6661   3.3099   3.3099   3.5019   3.5019   3.9834   3.9834
     4.3669   4.3669   4.9004   4.9004   5.3343   5.3343   6.4649   6.4649
     8.0525   8.0525  17.1180  17.1180  17.2829  17.2829  17.9821  17.9821
    24.9218  24.9218  25.0873  25.0873  28.7265  28.7265  32.8448  32.8448
    35.0949  35.0949  36.5267  36.5267  40.3923  40.3923  41.3628  41.3628
    43.7767  43.7767  44.7688  44.7688

          k = 0.3333 0.5774 0.2675 (  1908 PWs)   bands (ev):

  -115.9193-115.9193 -69.5714 -69.5714 -69.5647 -69.5563 -69.5562 -69.5520
    -7.6674  -7.6673   3.3211   3.3211   3.4251   3.5859   4.0019   4.0020
     4.3438   4.3604   4.8848   4.8849   5.3485   5.3486   6.2492   6.6968
     8.0162   8.0164  17.0817  17.0822  17.2300  17.3205  18.0810  18.0818
    24.2388  24.9849  24.9852  25.6823  28.8271  28.8272  32.7253  32.9868
    35.0647  35.0652  36.6007  36.6017  39.7537  40.6899  40.8643  40.8645
    43.8278  44.1864  44.1867  44.9545

          k = 0.3333 0.5774 0.2229 (  1908 PWs)   bands (ev):

  -115.9193-115.9193 -69.5748 -69.5747 -69.5638 -69.5540 -69.5540 -69.5464
    -7.6689  -7.6689   3.3636   3.3637   3.3680   3.6915   4.0020   4.0020
     4.3342   4.3776   4.8588   4.8589   5.3675   5.3677   6.0445   6.8977
     7.9148   7.9152  17.0067  17.0074  17.1771  17.3568  18.3442  18.3455
    23.6532  24.6993  24.6999  26.5175  29.0918  29.0919  32.6195  33.1618
    34.9818  34.9825  36.7908  36.7925  39.0667  39.9101  39.9104  40.2192
    43.7583  44.5130  44.5138  45.5404

          k = 0.3333 0.5774 0.1783 (  1911 PWs)   bands (ev):

  -115.9193-115.9193 -69.5796 -69.5733 -69.5733 -69.5533 -69.5533 -69.5494
    -7.6714  -7.6713   3.3016   3.4277   3.4278   3.8023   4.0492   4.0492
     4.3261   4.3442   4.7963   4.7964   5.3853   5.3855   5.8279   7.0686
     7.7880   7.7887  16.9370  16.9377  17.1135  17.3845  18.7044  18.7059
    23.1556  24.2868  24.2877  27.4094  29.4477  29.4479  32.5139  33.3477
    34.9093  34.9100  36.9935  36.9955  38.3838  38.9597  38.9603  39.1949
    44.3334  44.5064  44.5072  46.3268

          k = 0.3333 0.5774 0.1338 (  1929 PWs)   bands (ev):

  -115.9194-115.9194 -69.6022 -69.5898 -69.5897 -69.5738 -69.5738 -69.5699
    -7.6747  -7.6746   3.2316   3.4796   3.4798   3.8594   4.0718   4.0719
     4.2885   4.3032   4.6783   4.6783   5.4138   5.4140   5.6220   7.2143
     7.6118   7.6127  16.8780  16.8786  17.0466  17.3950  19.1071  19.1087
    22.7532  23.8231  23.8242  28.3232  29.8368  29.8371  32.3812  33.5557
    34.8747  34.8754  36.9811  36.9824  37.7762  38.0735  38.2943  38.2959
    44.4017  44.4026  45.0816  46.7200

          k = 0.3333 0.5774 0.0892 (  1935 PWs)   bands (ev):

  -115.9194-115.9194 -69.6022 -69.5968 -69.5968 -69.5844 -69.5843 -69.5728
    -7.6773  -7.6771   3.2026   3.5302   3.5304   3.9346   4.1048   4.1048
     4.2842   4.3035   4.6026   4.6027   5.4513   5.4516   5.4545   7.3347
     7.4449   7.4460  16.8396  16.8401  17.0011  17.3973  19.5138  19.5155
    22.4792  23.3758  23.3772  29.2275  30.2066  30.2070  32.1895  33.7706
    34.9183  34.9188  36.5154  36.5157  37.0838  37.2853  38.1602  38.1631
    44.2942  44.2952  45.8353  46.8329

          k = 0.3333 0.5774 0.0446 (  1929 PWs)   bands (ev):

  -115.9194-115.9194 -69.5920 -69.5881 -69.5881 -69.5767 -69.5767 -69.5729
    -7.6788  -7.6786   3.1989   3.5851   3.5853   3.9952   4.1803   4.1804
     4.2751   4.3294   4.5385   4.5386   5.3576   5.4898   5.4901   7.3501
     7.3513   7.4134  16.8215  16.8220  16.9746  17.4034  19.8464  19.8481
    22.3174  23.0287  23.0302  30.0194  30.4828  30.4831  31.9232  33.9395
    35.0814  35.0816  35.9177  35.9180  36.3928  36.9522  38.2540  38.2573
    44.2064  44.2073  46.4055  46.8691

          k = 0.3333 0.5774 0.0000 (  1923 PWs)   bands (ev):

  -115.9194-115.9194 -69.5833 -69.5817 -69.5816 -69.5718 -69.5718 -69.5602
    -7.6791  -7.6788   3.2315   3.5977   3.5979   4.0316   4.2314   4.2314
     4.2764   4.3571   4.5000   4.5002   5.3512   5.5081   5.5084   7.3050
     7.3061   7.4394  16.8176  16.8181  16.9689  17.4146  19.9858  19.9874
    22.2716  22.8890  22.8906  30.4181  30.5845  30.5848  31.7299  34.0147
    35.3282  35.3291  35.5094  35.5108  36.1423  36.8428  38.2924  38.2958
    44.1768  44.1778  46.6310  46.8771

     Writing all to output data dir /scratch/elinscott/materials_cloud_archive/zno/TMP/kc_bands.save/
 
     init_run     :      0.04s CPU      0.05s WALL (       1 calls)
     electrons    :      5.22s CPU      5.38s WALL (       1 calls)

     Called by init_run:
     wfcinit      :      0.00s CPU      0.00s WALL (       1 calls)
     wfcinit:atom :      0.00s CPU      0.00s WALL (      27 calls)
     wfcinit:wfcr :      0.19s CPU      0.21s WALL (      27 calls)
     potinit      :      0.00s CPU      0.00s WALL (       1 calls)
     hinit0       :      0.02s CPU      0.04s WALL (       1 calls)

     Called by electrons:
     c_bands      :      5.22s CPU      5.37s WALL (       1 calls)
     v_of_rho     :      0.00s CPU      0.00s WALL (       1 calls)
     v_h          :      0.00s CPU      0.00s WALL (       1 calls)
     v_xc         :      0.00s CPU      0.00s WALL (       1 calls)

     Called by c_bands:
     init_us_2    :      0.00s CPU      0.00s WALL (      27 calls)
     init_us_2:cp :      0.00s CPU      0.00s WALL (      27 calls)
     cegterg      :      4.48s CPU      4.59s WALL (      52 calls)

     Called by sum_band:

     Called by *egterg:
     cdiaghg      :      1.79s CPU      1.81s WALL (     744 calls)
     cegterg:over :      0.26s CPU      0.27s WALL (     717 calls)
     cegterg:upda :      0.12s CPU      0.12s WALL (     717 calls)
     cegterg:last :      0.21s CPU      0.21s WALL (     340 calls)
     h_psi        :      2.16s CPU      2.25s WALL (     796 calls)
     g_psi        :      0.02s CPU      0.02s WALL (     717 calls)

     Called by h_psi:
     h_psi:calbec :      0.11s CPU      0.12s WALL (     796 calls)
     vloc_psi     :      1.93s CPU      2.02s WALL (     796 calls)
     add_vuspsi   :      0.09s CPU      0.09s WALL (     796 calls)

     General routines
     calbec       :      0.11s CPU      0.11s WALL (     796 calls)
     fft          :      0.00s CPU      0.01s WALL (       5 calls)
     fftw         :      1.70s CPU      1.78s WALL (   38844 calls)
     davcio       :      0.01s CPU      0.01s WALL (      54 calls)
 
     Parallel routines
 
     PWSCF        :      5.54s CPU      5.78s WALL

 
   This run was terminated on:  12: 4:27  12Dec2022            

=------------------------------------------------------------------------------=
   JOB DONE.
=------------------------------------------------------------------------------=
