
     Program PWSCF v.7.1 starts on 12Dec2022 at 12: 3:56 

     This program is part of the open-source Quantum ESPRESSO suite
     for quantum simulation of materials; please cite
         "P. Giannozzi et al., J. Phys.:Condens. Matter 21 395502 (2009);
         "P. Giannozzi et al., J. Phys.:Condens. Matter 29 465901 (2017);
         "P. Giannozzi et al., J. Chem. Phys. 152 154105 (2020);
          URL http://www.quantum-espresso.org", 
     in publications or presentations arising from this work. More details at
     http://www.quantum-espresso.org/quote

     Parallel version (MPI), running on    16 processors

     MPI processes distributed on     1 nodes
     72640 MiB available memory on the printing compute node when the environment starts
 
     Reading input from nscf.pwi
Warning: card &IONS ignored
Warning: card / ignored
Warning: card &CELL ignored
Warning: card / ignored

     Current dimensions of program PWSCF are:
     Max number of different atomic species (ntypx) = 10
     Max number of k-points (npk) =  40000
     Max angular momentum in pseudopotentials (lmaxx) =  4

     Atomic positions and unit cell read from directory:
     /scratch/elinscott/materials_cloud_archive/zno/TMP/kc.save/
     Atomic positions from file used, from input discarded
 
 
     K-points division:     npool     =       4
     R & G space division:  proc/nbgrp/npool/nimage =       4
     Subspace diagonalization in iterative solution of the eigenvalue problem:
     a serial algorithm will be used

 
     Parallelization info
     --------------------
     sticks:   dense  smooth     PW     G-vecs:    dense   smooth      PW
     Min         127     127     40                 3819     3819     714
     Max         128     128     41                 3826     3826     721
     Sum         511     511    163                15291    15291    2875
 
     Using Slab Decomposition
 


     bravais-lattice index     =            4
     lattice parameter (alat)  =       6.1406  a.u.
     unit-cell volume          =     321.2403 (a.u.)^3
     number of atoms/cell      =            4
     number of atomic types    =            2
     number of electrons       =        52.00 (up:  26.00, down:  26.00)
     number of Kohn-Sham states=           52
     kinetic-energy cutoff     =      50.0000  Ry
     charge density cutoff     =     200.0000  Ry
     Exchange-correlation= SLA  PW   NOGX NOGC
                           (   1   4   0   0   0   0   0)

     celldm(1)=   6.140570  celldm(2)=   0.000000  celldm(3)=   1.602040
     celldm(4)=   0.000000  celldm(5)=   0.000000  celldm(6)=   0.000000

     crystal axes: (cart. coord. in units of alat)
               a(1) = (   1.000000   0.000000   0.000000 )  
               a(2) = (  -0.500000   0.866025   0.000000 )  
               a(3) = (   0.000000   0.000000   1.602040 )  

     reciprocal axes: (cart. coord. in units 2 pi/alat)
               b(1) = (  1.000000  0.577350  0.000000 )  
               b(2) = (  0.000000  1.154701  0.000000 )  
               b(3) = (  0.000000  0.000000  0.624204 )  


     PseudoPot. # 1 for Zn read from file:
     /home/elinscott/code/koopmans/src/koopmans/pseudopotentials/pseudo_dojo_standard_v0.4.1/lda/Zn.upf
     MD5 check sum: 492e12d15cacde48a98384ec5dd6fb31
     Pseudo is Norm-conserving + core correction, Zval = 20.0
     Generated using ONCVPSP code by D. R. Hamann
     Using radial grid of 1296 points,  6 beta functions with: 
                l(1) =   0
                l(2) =   0
                l(3) =   1
                l(4) =   1
                l(5) =   2
                l(6) =   2

     PseudoPot. # 2 for O  read from file:
     /home/elinscott/code/koopmans/src/koopmans/pseudopotentials/pseudo_dojo_standard_v0.4.1/lda/O.upf
     MD5 check sum: 86ed389b6a5065e60c3f64c68a612de9
     Pseudo is Norm-conserving + core correction, Zval =  6.0
     Generated using ONCVPSP code by D. R. Hamann
     Using radial grid of  926 points,  5 beta functions with: 
                l(1) =   0
                l(2) =   0
                l(3) =   1
                l(4) =   1
                l(5) =   2

     atomic species   valence    mass     pseudopotential
        Zn            20.00    65.38000     Zn( 1.00)
        O              6.00    15.99900     O ( 1.00)

     Starting magnetic structure 
     atomic species   magnetization
        Zn           0.000
        O            0.000

     No symmetry found


                                    s                        frac. trans.

      isym =  1     identity                                     

 cryst.   s( 1) = (     1          0          0      )
                  (     0          1          0      )
                  (     0          0          1      )

 cart.    s( 1) = (  1.0000000  0.0000000  0.0000000 )
                  (  0.0000000  1.0000000  0.0000000 )
                  (  0.0000000  0.0000000  1.0000000 )


     point group C_1 (1)    
     there are  1 classes
     the character table:

       E    
A      1.00

     the symmetry operations in each class and the name of the first element:

     E        1
          identity                                               

   Cartesian axes

     site n.     atom                  positions (alat units)
         1           Zn  tau(   1) = (  -0.0000500   0.5773791   0.8010200  )
         2           Zn  tau(   2) = (   0.5000500   0.2886463   0.0000000  )
         3           O   tau(   3) = (  -0.0000500   0.5773791   0.1878392  )
         4           O   tau(   4) = (   0.5000500   0.2886463   0.9888592  )

   Crystallographic axes

     site n.     atom                  positions (cryst. coord.)
         1           Zn  tau(   1) = (  0.3333000  0.6667000  0.5000000  )
         2           Zn  tau(   2) = (  0.6667000  0.3333000  0.0000000  )
         3           O   tau(   3) = (  0.3333000  0.6667000  0.1172500  )
         4           O   tau(   4) = (  0.6667000  0.3333000  0.6172500  )

     number of k points=    64
                       cart. coord. in units 2pi/alat
        k(    1) = (   0.0000000   0.0000000   0.0000000), wk =   0.0156250
        k(    2) = (   0.0000000   0.0000000   0.1560510), wk =   0.0156250
        k(    3) = (   0.0000000   0.0000000  -0.3121021), wk =   0.0156250
        k(    4) = (   0.0000000   0.0000000  -0.1560510), wk =   0.0156250
        k(    5) = (   0.0000000   0.2886751   0.0000000), wk =   0.0156250
        k(    6) = (   0.0000000   0.2886751   0.1560510), wk =   0.0156250
        k(    7) = (   0.0000000   0.2886751  -0.3121021), wk =   0.0156250
        k(    8) = (   0.0000000   0.2886751  -0.1560510), wk =   0.0156250
        k(    9) = (   0.0000000  -0.5773503   0.0000000), wk =   0.0156250
        k(   10) = (   0.0000000  -0.5773503   0.1560510), wk =   0.0156250
        k(   11) = (   0.0000000  -0.5773503  -0.3121021), wk =   0.0156250
        k(   12) = (   0.0000000  -0.5773503  -0.1560510), wk =   0.0156250
        k(   13) = (   0.0000000  -0.2886751   0.0000000), wk =   0.0156250
        k(   14) = (   0.0000000  -0.2886751   0.1560510), wk =   0.0156250
        k(   15) = (   0.0000000  -0.2886751  -0.3121021), wk =   0.0156250
        k(   16) = (   0.0000000  -0.2886751  -0.1560510), wk =   0.0156250
        k(   17) = (   0.2500000   0.1443376   0.0000000), wk =   0.0156250
        k(   18) = (   0.2500000   0.1443376   0.1560510), wk =   0.0156250
        k(   19) = (   0.2500000   0.1443376  -0.3121021), wk =   0.0156250
        k(   20) = (   0.2500000   0.1443376  -0.1560510), wk =   0.0156250
        k(   21) = (   0.2500000   0.4330127   0.0000000), wk =   0.0156250
        k(   22) = (   0.2500000   0.4330127   0.1560510), wk =   0.0156250
        k(   23) = (   0.2500000   0.4330127  -0.3121021), wk =   0.0156250
        k(   24) = (   0.2500000   0.4330127  -0.1560510), wk =   0.0156250
        k(   25) = (   0.2500000  -0.4330127   0.0000000), wk =   0.0156250
        k(   26) = (   0.2500000  -0.4330127   0.1560510), wk =   0.0156250
        k(   27) = (   0.2500000  -0.4330127  -0.3121021), wk =   0.0156250
        k(   28) = (   0.2500000  -0.4330127  -0.1560510), wk =   0.0156250
        k(   29) = (   0.2500000  -0.1443376   0.0000000), wk =   0.0156250
        k(   30) = (   0.2500000  -0.1443376   0.1560510), wk =   0.0156250
        k(   31) = (   0.2500000  -0.1443376  -0.3121021), wk =   0.0156250
        k(   32) = (   0.2500000  -0.1443376  -0.1560510), wk =   0.0156250
        k(   33) = (  -0.5000000  -0.2886751   0.0000000), wk =   0.0156250
        k(   34) = (  -0.5000000  -0.2886751   0.1560510), wk =   0.0156250
        k(   35) = (  -0.5000000  -0.2886751  -0.3121021), wk =   0.0156250
        k(   36) = (  -0.5000000  -0.2886751  -0.1560510), wk =   0.0156250
        k(   37) = (  -0.5000000   0.0000000   0.0000000), wk =   0.0156250
        k(   38) = (  -0.5000000   0.0000000   0.1560510), wk =   0.0156250
        k(   39) = (  -0.5000000   0.0000000  -0.3121021), wk =   0.0156250
        k(   40) = (  -0.5000000   0.0000000  -0.1560510), wk =   0.0156250
        k(   41) = (  -0.5000000  -0.8660254   0.0000000), wk =   0.0156250
        k(   42) = (  -0.5000000  -0.8660254   0.1560510), wk =   0.0156250
        k(   43) = (  -0.5000000  -0.8660254  -0.3121021), wk =   0.0156250
        k(   44) = (  -0.5000000  -0.8660254  -0.1560510), wk =   0.0156250
        k(   45) = (  -0.5000000  -0.5773503   0.0000000), wk =   0.0156250
        k(   46) = (  -0.5000000  -0.5773503   0.1560510), wk =   0.0156250
        k(   47) = (  -0.5000000  -0.5773503  -0.3121021), wk =   0.0156250
        k(   48) = (  -0.5000000  -0.5773503  -0.1560510), wk =   0.0156250
        k(   49) = (  -0.2500000  -0.1443376   0.0000000), wk =   0.0156250
        k(   50) = (  -0.2500000  -0.1443376   0.1560510), wk =   0.0156250
        k(   51) = (  -0.2500000  -0.1443376  -0.3121021), wk =   0.0156250
        k(   52) = (  -0.2500000  -0.1443376  -0.1560510), wk =   0.0156250
        k(   53) = (  -0.2500000   0.1443376   0.0000000), wk =   0.0156250
        k(   54) = (  -0.2500000   0.1443376   0.1560510), wk =   0.0156250
        k(   55) = (  -0.2500000   0.1443376  -0.3121021), wk =   0.0156250
        k(   56) = (  -0.2500000   0.1443376  -0.1560510), wk =   0.0156250
        k(   57) = (  -0.2500000  -0.7216878   0.0000000), wk =   0.0156250
        k(   58) = (  -0.2500000  -0.7216878   0.1560510), wk =   0.0156250
        k(   59) = (  -0.2500000  -0.7216878  -0.3121021), wk =   0.0156250
        k(   60) = (  -0.2500000  -0.7216878  -0.1560510), wk =   0.0156250
        k(   61) = (  -0.2500000  -0.4330127   0.0000000), wk =   0.0156250
        k(   62) = (  -0.2500000  -0.4330127   0.1560510), wk =   0.0156250
        k(   63) = (  -0.2500000  -0.4330127  -0.3121021), wk =   0.0156250
        k(   64) = (  -0.2500000  -0.4330127  -0.1560510), wk =   0.0156250

                       cryst. coord.
        k(    1) = (   0.0000000   0.0000000   0.0000000), wk =   0.0156250
        k(    2) = (   0.0000000   0.0000000   0.2500000), wk =   0.0156250
        k(    3) = (   0.0000000   0.0000000  -0.5000000), wk =   0.0156250
        k(    4) = (   0.0000000   0.0000000  -0.2500000), wk =   0.0156250
        k(    5) = (   0.0000000   0.2500000   0.0000000), wk =   0.0156250
        k(    6) = (   0.0000000   0.2500000   0.2500000), wk =   0.0156250
        k(    7) = (   0.0000000   0.2500000  -0.5000000), wk =   0.0156250
        k(    8) = (   0.0000000   0.2500000  -0.2500000), wk =   0.0156250
        k(    9) = (   0.0000000  -0.5000000   0.0000000), wk =   0.0156250
        k(   10) = (   0.0000000  -0.5000000   0.2500000), wk =   0.0156250
        k(   11) = (   0.0000000  -0.5000000  -0.5000000), wk =   0.0156250
        k(   12) = (   0.0000000  -0.5000000  -0.2500000), wk =   0.0156250
        k(   13) = (   0.0000000  -0.2500000   0.0000000), wk =   0.0156250
        k(   14) = (   0.0000000  -0.2500000   0.2500000), wk =   0.0156250
        k(   15) = (   0.0000000  -0.2500000  -0.5000000), wk =   0.0156250
        k(   16) = (   0.0000000  -0.2500000  -0.2500000), wk =   0.0156250
        k(   17) = (   0.2500000   0.0000000   0.0000000), wk =   0.0156250
        k(   18) = (   0.2500000   0.0000000   0.2500000), wk =   0.0156250
        k(   19) = (   0.2500000   0.0000000  -0.5000000), wk =   0.0156250
        k(   20) = (   0.2500000   0.0000000  -0.2500000), wk =   0.0156250
        k(   21) = (   0.2500000   0.2500000   0.0000000), wk =   0.0156250
        k(   22) = (   0.2500000   0.2500000   0.2500000), wk =   0.0156250
        k(   23) = (   0.2500000   0.2500000  -0.5000000), wk =   0.0156250
        k(   24) = (   0.2500000   0.2500000  -0.2500000), wk =   0.0156250
        k(   25) = (   0.2500000  -0.5000000   0.0000000), wk =   0.0156250
        k(   26) = (   0.2500000  -0.5000000   0.2500000), wk =   0.0156250
        k(   27) = (   0.2500000  -0.5000000  -0.5000000), wk =   0.0156250
        k(   28) = (   0.2500000  -0.5000000  -0.2500000), wk =   0.0156250
        k(   29) = (   0.2500000  -0.2500000   0.0000000), wk =   0.0156250
        k(   30) = (   0.2500000  -0.2500000   0.2500000), wk =   0.0156250
        k(   31) = (   0.2500000  -0.2500000  -0.5000000), wk =   0.0156250
        k(   32) = (   0.2500000  -0.2500000  -0.2500000), wk =   0.0156250
        k(   33) = (  -0.5000000  -0.0000000   0.0000000), wk =   0.0156250
        k(   34) = (  -0.5000000  -0.0000000   0.2500000), wk =   0.0156250
        k(   35) = (  -0.5000000  -0.0000000  -0.5000000), wk =   0.0156250
        k(   36) = (  -0.5000000  -0.0000000  -0.2500000), wk =   0.0156250
        k(   37) = (  -0.5000000   0.2500000   0.0000000), wk =   0.0156250
        k(   38) = (  -0.5000000   0.2500000   0.2500000), wk =   0.0156250
        k(   39) = (  -0.5000000   0.2500000  -0.5000000), wk =   0.0156250
        k(   40) = (  -0.5000000   0.2500000  -0.2500000), wk =   0.0156250
        k(   41) = (  -0.5000000  -0.5000000   0.0000000), wk =   0.0156250
        k(   42) = (  -0.5000000  -0.5000000   0.2500000), wk =   0.0156250
        k(   43) = (  -0.5000000  -0.5000000  -0.5000000), wk =   0.0156250
        k(   44) = (  -0.5000000  -0.5000000  -0.2500000), wk =   0.0156250
        k(   45) = (  -0.5000000  -0.2500000   0.0000000), wk =   0.0156250
        k(   46) = (  -0.5000000  -0.2500000   0.2500000), wk =   0.0156250
        k(   47) = (  -0.5000000  -0.2500000  -0.5000000), wk =   0.0156250
        k(   48) = (  -0.5000000  -0.2500000  -0.2500000), wk =   0.0156250
        k(   49) = (  -0.2500000  -0.0000000   0.0000000), wk =   0.0156250
        k(   50) = (  -0.2500000  -0.0000000   0.2500000), wk =   0.0156250
        k(   51) = (  -0.2500000  -0.0000000  -0.5000000), wk =   0.0156250
        k(   52) = (  -0.2500000  -0.0000000  -0.2500000), wk =   0.0156250
        k(   53) = (  -0.2500000   0.2500000   0.0000000), wk =   0.0156250
        k(   54) = (  -0.2500000   0.2500000   0.2500000), wk =   0.0156250
        k(   55) = (  -0.2500000   0.2500000  -0.5000000), wk =   0.0156250
        k(   56) = (  -0.2500000   0.2500000  -0.2500000), wk =   0.0156250
        k(   57) = (  -0.2500000  -0.5000000   0.0000000), wk =   0.0156250
        k(   58) = (  -0.2500000  -0.5000000   0.2500000), wk =   0.0156250
        k(   59) = (  -0.2500000  -0.5000000  -0.5000000), wk =   0.0156250
        k(   60) = (  -0.2500000  -0.5000000  -0.2500000), wk =   0.0156250
        k(   61) = (  -0.2500000  -0.2500000   0.0000000), wk =   0.0156250
        k(   62) = (  -0.2500000  -0.2500000   0.2500000), wk =   0.0156250
        k(   63) = (  -0.2500000  -0.2500000  -0.5000000), wk =   0.0156250
        k(   64) = (  -0.2500000  -0.2500000  -0.2500000), wk =   0.0156250

     Dense  grid:    15291 G-vectors     FFT dimensions: (  27,  27,  45)

     Dynamical RAM for                 wfc:       0.38 MB

     Dynamical RAM for     wfc (w. buffer):       0.38 MB

     Dynamical RAM for           str. fact:       0.12 MB

     Dynamical RAM for           local pot:       0.00 MB

     Dynamical RAM for          nlocal pot:       0.45 MB

     Dynamical RAM for                qrad:       2.27 MB

     Dynamical RAM for          rho,v,vnew:       0.75 MB

     Dynamical RAM for           G-vectors:       0.25 MB

     Dynamical RAM for          h,s,v(r/c):       0.50 MB

     Dynamical RAM for          <psi|beta>:       0.05 MB

     Dynamical RAM for                 psi:       0.76 MB

     Dynamical RAM for                hpsi:       0.76 MB

     Dynamical RAM for      wfcinit/wfcrot:       0.82 MB

     Estimated static dynamical RAM per process >       4.80 MB

     Estimated max dynamical RAM per process >       6.86 MB

     Estimated total dynamical RAM >     109.77 MB

     Check: negative core charge=   -0.000271
     Generating pointlists ...
     new r_m :   0.2504 (alat units)  1.5377 (a.u.) for type    1
     new r_m :   0.2504 (alat units)  1.5377 (a.u.) for type    2

     The potential is recalculated from file :
     /scratch/elinscott/materials_cloud_archive/zno/TMP/kc.save/charge-density

     Starting wfcs are   28 randomized atomic wfcs +   24 random wfcs

     Band Structure Calculation
     Davidson diagonalization with overlap

     Computing kpt #:     1  of    32 on this pool
     total cpu time spent up to now is        0.3 secs

     Computing kpt #:     2  of    32 on this pool
     total cpu time spent up to now is        0.5 secs

     Computing kpt #:     3  of    32 on this pool
     total cpu time spent up to now is        0.7 secs

     Computing kpt #:     4  of    32 on this pool
     total cpu time spent up to now is        0.9 secs

     Computing kpt #:     5  of    32 on this pool
     total cpu time spent up to now is        1.1 secs

     Computing kpt #:     6  of    32 on this pool
     total cpu time spent up to now is        1.4 secs

     Computing kpt #:     7  of    32 on this pool
     total cpu time spent up to now is        1.6 secs

     Computing kpt #:     8  of    32 on this pool
     total cpu time spent up to now is        1.8 secs

     Computing kpt #:     9  of    32 on this pool
     total cpu time spent up to now is        2.0 secs

     Computing kpt #:    10  of    32 on this pool
     total cpu time spent up to now is        2.2 secs

     Computing kpt #:    11  of    32 on this pool
     total cpu time spent up to now is        2.4 secs

     Computing kpt #:    12  of    32 on this pool
     total cpu time spent up to now is        2.6 secs

     Computing kpt #:    13  of    32 on this pool
     total cpu time spent up to now is        2.8 secs

     Computing kpt #:    14  of    32 on this pool
     total cpu time spent up to now is        3.0 secs

     Computing kpt #:    15  of    32 on this pool
     total cpu time spent up to now is        3.2 secs

     Computing kpt #:    16  of    32 on this pool
     total cpu time spent up to now is        3.5 secs

     Computing kpt #:    17  of    32 on this pool
     total cpu time spent up to now is        3.7 secs

     Computing kpt #:    18  of    32 on this pool
     total cpu time spent up to now is        3.8 secs

     Computing kpt #:    19  of    32 on this pool
     total cpu time spent up to now is        4.0 secs

     Computing kpt #:    20  of    32 on this pool
     total cpu time spent up to now is        4.2 secs

     Computing kpt #:    21  of    32 on this pool
     total cpu time spent up to now is        4.4 secs

     Computing kpt #:    22  of    32 on this pool
     total cpu time spent up to now is        4.7 secs

     Computing kpt #:    23  of    32 on this pool
     total cpu time spent up to now is        4.8 secs

     Computing kpt #:    24  of    32 on this pool
     total cpu time spent up to now is        5.1 secs

     Computing kpt #:    25  of    32 on this pool
     total cpu time spent up to now is        5.3 secs

     Computing kpt #:    26  of    32 on this pool
     total cpu time spent up to now is        5.6 secs

     Computing kpt #:    27  of    32 on this pool
     total cpu time spent up to now is        5.8 secs

     Computing kpt #:    28  of    32 on this pool
     total cpu time spent up to now is        6.0 secs

     Computing kpt #:    29  of    32 on this pool
     total cpu time spent up to now is        6.2 secs

     Computing kpt #:    30  of    32 on this pool
     total cpu time spent up to now is        6.5 secs

     Computing kpt #:    31  of    32 on this pool
     total cpu time spent up to now is        6.7 secs

     Computing kpt #:    32  of    32 on this pool
     total cpu time spent up to now is        7.0 secs

     ethr =  2.00E-10,  avg # of iterations = 28.7

     total cpu time spent up to now is        7.0 secs

     End of band structure calculation

 ------ SPIN UP ------------


          k = 0.0000 0.0000 0.0000 (  1907 PWs)   bands (ev):

  -115.9196-115.9194 -69.5867 -69.5867 -69.5843 -69.5549 -69.5548 -69.5320
    -8.5717  -7.8073   3.2161   3.2170   3.3992   3.4125   3.4129   3.6191
     4.3155   4.3158   4.4230   4.4232   4.9918   8.4791   8.4802   9.2674
     9.2674   9.2874   9.9768  14.2823  17.4561  21.9959  21.9971  23.2212
    23.2515  23.2549  25.7096  27.4930  27.4944  29.0304  29.1125  29.1136
    30.2636  32.2093  34.1970  34.2006  36.7792  37.7512  37.7533  38.0395
    40.3576  40.3601  43.8296  43.8323

     occupation numbers 
     1.0000   1.0000   1.0000   1.0000   1.0000   1.0000   1.0000   1.0000
     1.0000   1.0000   1.0000   1.0000   1.0000   1.0000   1.0000   1.0000
     1.0000   1.0000   1.0000   1.0000   1.0000   1.0000   1.0000   1.0000
     1.0000   1.0000   0.0000   0.0000   0.0000   0.0000   0.0000   0.0000
     0.0000   0.0000   0.0000   0.0000   0.0000   0.0000   0.0000   0.0000
     0.0000   0.0000   0.0000   0.0000   0.0000   0.0000   0.0000   0.0000
     0.0000   0.0000   0.0000   0.0000

          k = 0.0000 0.0000 0.1561 (  1882 PWs)   bands (ev):

  -115.9195-115.9193 -69.5870 -69.5659 -69.5301 -69.5301 -69.5265 -69.5264
    -8.4656  -7.9239   3.2283   3.2902   3.2910   3.3183   3.4197   3.4202
     4.3769   4.3771   4.5412   4.5414   5.6502   8.1816   8.6581   8.6592
     9.2036   9.2039  11.1518  13.8433  17.8796  21.4473  22.0377  22.0393
    22.8774  22.8804  26.2657  28.1468  28.1484  28.5230  29.7572  29.7579
    32.3743  32.5163  33.6120  33.6143  36.6307  36.6331  36.8005  38.0312
    40.6795  40.6815  41.9328  41.9332

     occupation numbers 
     1.0000   1.0000   1.0000   1.0000   1.0000   1.0000   1.0000   1.0000
     1.0000   1.0000   1.0000   1.0000   1.0000   1.0000   1.0000   1.0000
     1.0000   1.0000   1.0000   1.0000   1.0000   1.0000   1.0000   1.0000
     1.0000   1.0000   0.0000   0.0000   0.0000   0.0000   0.0000   0.0000
     0.0000   0.0000   0.0000   0.0000   0.0000   0.0000   0.0000   0.0000
     0.0000   0.0000   0.0000   0.0000   0.0000   0.0000   0.0000   0.0000
     0.0000   0.0000   0.0000   0.0000

          k = 0.0000 0.0000-0.3121 (  1894 PWs)   bands (ev):

  -115.9195-115.9195 -69.6039 -69.6036 -69.5347 -69.5347 -69.5346 -69.5346
    -8.2007  -8.2007   3.1075   3.1076   3.3416   3.3416   3.3423   3.3423
     4.4254   4.4255   4.4255   4.4255   6.9177   6.9178   8.9246   8.9246
     8.9253   8.9253  12.6623  12.6623  19.1960  19.1960  22.2963  22.2963
    22.2985  22.2985  27.2994  27.2995  29.5168  29.5168  29.5183  29.5184
    33.6952  33.6952  34.2688  34.2689  34.2701  34.2702  37.6987  37.6989
    41.0972  41.0972  41.0984  41.0985

     occupation numbers 
     1.0000   1.0000   1.0000   1.0000   1.0000   1.0000   1.0000   1.0000
     1.0000   1.0000   1.0000   1.0000   1.0000   1.0000   1.0000   1.0000
     1.0000   1.0000   1.0000   1.0000   1.0000   1.0000   1.0000   1.0000
     1.0000   1.0000   0.0000   0.0000   0.0000   0.0000   0.0000   0.0000
     0.0000   0.0000   0.0000   0.0000   0.0000   0.0000   0.0000   0.0000
     0.0000   0.0000   0.0000   0.0000   0.0000   0.0000   0.0000   0.0000
     0.0000   0.0000   0.0000   0.0000

          k = 0.0000 0.0000-0.1561 (  1882 PWs)   bands (ev):

  -115.9195-115.9193 -69.5870 -69.5659 -69.5301 -69.5301 -69.5265 -69.5264
    -8.4656  -7.9239   3.2283   3.2902   3.2910   3.3183   3.4197   3.4202
     4.3769   4.3771   4.5412   4.5414   5.6502   8.1816   8.6581   8.6592
     9.2036   9.2039  11.1518  13.8433  17.8796  21.4473  22.0377  22.0393
    22.8774  22.8804  26.2657  28.1468  28.1484  28.5230  29.7572  29.7579
    32.3743  32.5163  33.6120  33.6143  36.6307  36.6331  36.8005  38.0312
    40.6795  40.6815  41.9328  41.9332

     occupation numbers 
     1.0000   1.0000   1.0000   1.0000   1.0000   1.0000   1.0000   1.0000
     1.0000   1.0000   1.0000   1.0000   1.0000   1.0000   1.0000   1.0000
     1.0000   1.0000   1.0000   1.0000   1.0000   1.0000   1.0000   1.0000
     1.0000   1.0000   0.0000   0.0000   0.0000   0.0000   0.0000   0.0000
     0.0000   0.0000   0.0000   0.0000   0.0000   0.0000   0.0000   0.0000
     0.0000   0.0000   0.0000   0.0000   0.0000   0.0000   0.0000   0.0000
     0.0000   0.0000   0.0000   0.0000

          k = 0.0000 0.2887 0.0000 (  1916 PWs)   bands (ev):

  -115.9195-115.9194 -69.5960 -69.5858 -69.5840 -69.5746 -69.5555 -69.5441
    -8.2547  -7.6828   3.0227   3.3569   3.3835   3.5494   3.6104   3.9048
     4.1987   4.3522   4.5455   4.8104   4.9482   6.6975   7.4127   7.7265
     8.8160   8.8759  12.4787  16.1187  17.3858  18.7752  20.7347  22.3450
    22.5200  23.3921  24.7146  27.0408  27.4580  29.9888  32.4560  33.3449
    33.7029  33.7435  34.7976  36.0169  37.3089  37.6210  37.7327  38.1212
    39.6350  40.5138  41.3420  44.1323

     occupation numbers 
     1.0000   1.0000   1.0000   1.0000   1.0000   1.0000   1.0000   1.0000
     1.0000   1.0000   1.0000   1.0000   1.0000   1.0000   1.0000   1.0000
     1.0000   1.0000   1.0000   1.0000   1.0000   1.0000   1.0000   1.0000
     1.0000   1.0000   0.0000   0.0000   0.0000   0.0000   0.0000   0.0000
     0.0000   0.0000   0.0000   0.0000   0.0000   0.0000   0.0000   0.0000
     0.0000   0.0000   0.0000   0.0000   0.0000   0.0000   0.0000   0.0000
     0.0000   0.0000   0.0000   0.0000

          k = 0.0000 0.2887 0.1561 (  1908 PWs)   bands (ev):

  -115.9195-115.9194 -69.5963 -69.5763 -69.5676 -69.5574 -69.5481 -69.5458
    -8.1713  -7.7660   2.9736   3.2091   3.4179   3.4824   3.5950   3.6529
     4.3317   4.3933   4.4921   4.6665   5.7735   6.8508   7.2991   7.9237
     8.6511   8.7256  12.8638  15.3642  17.7857  18.9076  20.5686  21.7873
    22.5352  23.1152  24.5904  27.7077  27.9477  30.6852  31.5362  32.6567
    33.4650  34.1699  34.7656  36.6456  36.7304  37.3269  37.6479  39.6456
    39.8453  41.0624  41.9754  43.8498

     occupation numbers 
     1.0000   1.0000   1.0000   1.0000   1.0000   1.0000   1.0000   1.0000
     1.0000   1.0000   1.0000   1.0000   1.0000   1.0000   1.0000   1.0000
     1.0000   1.0000   1.0000   1.0000   1.0000   1.0000   1.0000   1.0000
     1.0000   1.0000   0.0000   0.0000   0.0000   0.0000   0.0000   0.0000
     0.0000   0.0000   0.0000   0.0000   0.0000   0.0000   0.0000   0.0000
     0.0000   0.0000   0.0000   0.0000   0.0000   0.0000   0.0000   0.0000
     0.0000   0.0000   0.0000   0.0000

          k = 0.0000 0.2887-0.3121 (  1918 PWs)   bands (ev):

  -115.9195-115.9194 -69.5964 -69.5962 -69.5726 -69.5725 -69.5572 -69.5572
    -7.9694  -7.9694   2.9636   2.9637   3.4847   3.4848   3.4916   3.4916
     4.4434   4.4434   4.4652   4.4653   6.5210   6.5210   7.9416   7.9417
     8.3238   8.3239  13.9835  13.9836  18.5731  18.5731  20.6816  20.6817
    22.7084  22.7084  26.1170  26.1170  30.0845  30.0845  31.4850  31.4850
    33.5940  33.5940  35.7697  35.7698  37.3883  37.3883  39.3306  39.3307
    41.4956  41.4957  41.6186  41.6187

     occupation numbers 
     1.0000   1.0000   1.0000   1.0000   1.0000   1.0000   1.0000   1.0000
     1.0000   1.0000   1.0000   1.0000   1.0000   1.0000   1.0000   1.0000
     1.0000   1.0000   1.0000   1.0000   1.0000   1.0000   1.0000   1.0000
     1.0000   1.0000   0.0000   0.0000   0.0000   0.0000   0.0000   0.0000
     0.0000   0.0000   0.0000   0.0000   0.0000   0.0000   0.0000   0.0000
     0.0000   0.0000   0.0000   0.0000   0.0000   0.0000   0.0000   0.0000
     0.0000   0.0000   0.0000   0.0000

          k = 0.0000 0.2887-0.1561 (  1908 PWs)   bands (ev):

  -115.9195-115.9194 -69.5963 -69.5763 -69.5676 -69.5574 -69.5481 -69.5458
    -8.1713  -7.7660   2.9736   3.2091   3.4179   3.4824   3.5950   3.6528
     4.3317   4.3933   4.4921   4.6665   5.7735   6.8508   7.2992   7.9237
     8.6511   8.7256  12.8638  15.3642  17.7857  18.9076  20.5685  21.7874
    22.5352  23.1152  24.5904  27.7077  27.9477  30.6852  31.5362  32.6567
    33.4650  34.1699  34.7656  36.6456  36.7304  37.3269  37.6479  39.6456
    39.8452  41.0624  41.9755  43.8498

     occupation numbers 
     1.0000   1.0000   1.0000   1.0000   1.0000   1.0000   1.0000   1.0000
     1.0000   1.0000   1.0000   1.0000   1.0000   1.0000   1.0000   1.0000
     1.0000   1.0000   1.0000   1.0000   1.0000   1.0000   1.0000   1.0000
     1.0000   1.0000   0.0000   0.0000   0.0000   0.0000   0.0000   0.0000
     0.0000   0.0000   0.0000   0.0000   0.0000   0.0000   0.0000   0.0000
     0.0000   0.0000   0.0000   0.0000   0.0000   0.0000   0.0000   0.0000
     0.0000   0.0000   0.0000   0.0000

          k = 0.0000-0.5774 0.0000 (  1906 PWs)   bands (ev):

  -115.9194-115.9193 -69.5740 -69.5667 -69.5624 -69.5596 -69.5551 -69.5491
    -7.8515  -7.6173   3.0761   3.3608   3.5112   3.9247   3.9532   3.9667
     4.3722   4.4892   4.5990   4.7302   5.2828   5.5430   6.3687   6.9827
     7.9934   8.4196  14.9270  16.0725  16.8686  17.5582  19.8087  21.5736
    22.4780  23.4330  24.9912  27.8041  28.3589  29.7073  32.3227  34.0258
    34.2548  35.1943  36.6319  36.8001  37.5774  38.6274  40.5860  41.8670
    42.0077  42.4942  42.5903  43.6958

     occupation numbers 
     1.0000   1.0000   1.0000   1.0000   1.0000   1.0000   1.0000   1.0000
     1.0000   1.0000   1.0000   1.0000   1.0000   1.0000   1.0000   1.0000
     1.0000   1.0000   1.0000   1.0000   1.0000   1.0000   1.0000   1.0000
     1.0000   1.0000   0.0000   0.0000   0.0000   0.0000   0.0000   0.0000
     0.0000   0.0000   0.0000   0.0000   0.0000   0.0000   0.0000   0.0000
     0.0000   0.0000   0.0000   0.0000   0.0000   0.0000   0.0000   0.0000
     0.0000   0.0000   0.0000   0.0000

          k = 0.0000-0.5774 0.1561 (  1932 PWs)   bands (ev):

  -115.9194-115.9194 -69.5980 -69.5950 -69.5892 -69.5843 -69.5843 -69.5729
    -7.8132  -7.6473   2.9824   3.1470   3.5248   3.8322   3.8390   3.8443
     4.4436   4.4695   4.4857   4.6792   5.1578   5.4052   6.9855   7.1834
     8.1423   8.1998  14.6499  15.6918  17.2071  17.6557  19.6773  21.7139
    22.5906  23.2548  23.8732  27.7259  30.2530  30.3248  30.3365  33.7378
    34.6991  35.3955  35.6672  36.3583  38.7681  38.9775  40.6601  42.0517
    42.2113  42.2808  44.1079  44.7554

     occupation numbers 
     1.0000   1.0000   1.0000   1.0000   1.0000   1.0000   1.0000   1.0000
     1.0000   1.0000   1.0000   1.0000   1.0000   1.0000   1.0000   1.0000
     1.0000   1.0000   1.0000   1.0000   1.0000   1.0000   1.0000   1.0000
     1.0000   1.0000   0.0000   0.0000   0.0000   0.0000   0.0000   0.0000
     0.0000   0.0000   0.0000   0.0000   0.0000   0.0000   0.0000   0.0000
     0.0000   0.0000   0.0000   0.0000   0.0000   0.0000   0.0000   0.0000
     0.0000   0.0000   0.0000   0.0000

          k = 0.0000-0.5774-0.3121 (  1924 PWs)   bands (ev):

  -115.9194-115.9194 -69.5896 -69.5895 -69.5733 -69.5732 -69.5713 -69.5713
    -7.7243  -7.7243   2.9595   2.9595   3.6826   3.6827   3.8017   3.8018
     4.4767   4.4767   4.6295   4.6295   5.2413   5.2413   7.7057   7.7057
     7.8922   7.8922  14.8885  14.8885  17.5929  17.5930  20.4171  20.4172
    22.9125  22.9125  25.3814  25.3815  30.9354  30.9355  32.1756  32.1757
    34.5180  34.5181  35.6866  35.6866  39.8769  39.8770  41.7201  41.7202
    42.5460  42.5460  44.4031  44.4032

     occupation numbers 
     1.0000   1.0000   1.0000   1.0000   1.0000   1.0000   1.0000   1.0000
     1.0000   1.0000   1.0000   1.0000   1.0000   1.0000   1.0000   1.0000
     1.0000   1.0000   1.0000   1.0000   1.0000   1.0000   1.0000   1.0000
     1.0000   1.0000   0.0000   0.0000   0.0000   0.0000   0.0000   0.0000
     0.0000   0.0000   0.0000   0.0000   0.0000   0.0000   0.0000   0.0000
     0.0000   0.0000   0.0000   0.0000   0.0000   0.0000   0.0000   0.0000
     0.0000   0.0000   0.0000   0.0000

          k = 0.0000-0.5774-0.1561 (  1932 PWs)   bands (ev):

  -115.9194-115.9194 -69.5980 -69.5950 -69.5892 -69.5843 -69.5843 -69.5729
    -7.8132  -7.6473   2.9824   3.1470   3.5248   3.8322   3.8390   3.8443
     4.4436   4.4695   4.4857   4.6792   5.1578   5.4052   6.9855   7.1834
     8.1423   8.1998  14.6499  15.6918  17.2071  17.6557  19.6773  21.7139
    22.5906  23.2548  23.8732  27.7259  30.2530  30.3248  30.3365  33.7378
    34.6991  35.3955  35.6672  36.3583  38.7681  38.9775  40.6601  42.0517
    42.2113  42.2808  44.1079  44.7554

     occupation numbers 
     1.0000   1.0000   1.0000   1.0000   1.0000   1.0000   1.0000   1.0000
     1.0000   1.0000   1.0000   1.0000   1.0000   1.0000   1.0000   1.0000
     1.0000   1.0000   1.0000   1.0000   1.0000   1.0000   1.0000   1.0000
     1.0000   1.0000   0.0000   0.0000   0.0000   0.0000   0.0000   0.0000
     0.0000   0.0000   0.0000   0.0000   0.0000   0.0000   0.0000   0.0000
     0.0000   0.0000   0.0000   0.0000   0.0000   0.0000   0.0000   0.0000
     0.0000   0.0000   0.0000   0.0000

          k = 0.0000-0.2887 0.0000 (  1916 PWs)   bands (ev):

  -115.9195-115.9194 -69.5960 -69.5858 -69.5840 -69.5746 -69.5555 -69.5441
    -8.2547  -7.6828   3.0227   3.3569   3.3835   3.5494   3.6104   3.9048
     4.1987   4.3522   4.5455   4.8104   4.9482   6.6975   7.4127   7.7265
     8.8160   8.8759  12.4787  16.1187  17.3858  18.7752  20.7347  22.3450
    22.5200  23.3921  24.7146  27.0408  27.4580  29.9888  32.4560  33.3449
    33.7029  33.7435  34.7976  36.0169  37.3089  37.6210  37.7327  38.1212
    39.6350  40.5138  41.3420  44.1323

     occupation numbers 
     1.0000   1.0000   1.0000   1.0000   1.0000   1.0000   1.0000   1.0000
     1.0000   1.0000   1.0000   1.0000   1.0000   1.0000   1.0000   1.0000
     1.0000   1.0000   1.0000   1.0000   1.0000   1.0000   1.0000   1.0000
     1.0000   1.0000   0.0000   0.0000   0.0000   0.0000   0.0000   0.0000
     0.0000   0.0000   0.0000   0.0000   0.0000   0.0000   0.0000   0.0000
     0.0000   0.0000   0.0000   0.0000   0.0000   0.0000   0.0000   0.0000
     0.0000   0.0000   0.0000   0.0000

          k = 0.0000-0.2887 0.1561 (  1908 PWs)   bands (ev):

  -115.9195-115.9194 -69.5963 -69.5763 -69.5676 -69.5574 -69.5481 -69.5458
    -8.1713  -7.7660   2.9736   3.2091   3.4179   3.4824   3.5950   3.6528
     4.3317   4.3933   4.4921   4.6665   5.7735   6.8508   7.2992   7.9237
     8.6511   8.7256  12.8638  15.3642  17.7857  18.9076  20.5685  21.7874
    22.5352  23.1152  24.5904  27.7077  27.9477  30.6852  31.5362  32.6567
    33.4650  34.1699  34.7656  36.6456  36.7304  37.3269  37.6479  39.6456
    39.8452  41.0624  41.9755  43.8498

     occupation numbers 
     1.0000   1.0000   1.0000   1.0000   1.0000   1.0000   1.0000   1.0000
     1.0000   1.0000   1.0000   1.0000   1.0000   1.0000   1.0000   1.0000
     1.0000   1.0000   1.0000   1.0000   1.0000   1.0000   1.0000   1.0000
     1.0000   1.0000   0.0000   0.0000   0.0000   0.0000   0.0000   0.0000
     0.0000   0.0000   0.0000   0.0000   0.0000   0.0000   0.0000   0.0000
     0.0000   0.0000   0.0000   0.0000   0.0000   0.0000   0.0000   0.0000
     0.0000   0.0000   0.0000   0.0000

          k = 0.0000-0.2887-0.3121 (  1918 PWs)   bands (ev):

  -115.9195-115.9194 -69.5964 -69.5962 -69.5726 -69.5725 -69.5572 -69.5572
    -7.9694  -7.9694   2.9636   2.9637   3.4847   3.4848   3.4916   3.4916
     4.4434   4.4434   4.4652   4.4653   6.5210   6.5210   7.9416   7.9417
     8.3238   8.3239  13.9835  13.9836  18.5731  18.5731  20.6816  20.6817
    22.7084  22.7084  26.1170  26.1170  30.0845  30.0845  31.4850  31.4850
    33.5940  33.5940  35.7697  35.7698  37.3883  37.3883  39.3306  39.3307
    41.4956  41.4957  41.6186  41.6187

     occupation numbers 
     1.0000   1.0000   1.0000   1.0000   1.0000   1.0000   1.0000   1.0000
     1.0000   1.0000   1.0000   1.0000   1.0000   1.0000   1.0000   1.0000
     1.0000   1.0000   1.0000   1.0000   1.0000   1.0000   1.0000   1.0000
     1.0000   1.0000   0.0000   0.0000   0.0000   0.0000   0.0000   0.0000
     0.0000   0.0000   0.0000   0.0000   0.0000   0.0000   0.0000   0.0000
     0.0000   0.0000   0.0000   0.0000   0.0000   0.0000   0.0000   0.0000
     0.0000   0.0000   0.0000   0.0000

          k = 0.0000-0.2887-0.1561 (  1908 PWs)   bands (ev):

  -115.9195-115.9194 -69.5963 -69.5763 -69.5676 -69.5574 -69.5481 -69.5458
    -8.1713  -7.7660   2.9736   3.2091   3.4179   3.4824   3.5950   3.6529
     4.3317   4.3933   4.4921   4.6665   5.7735   6.8508   7.2991   7.9237
     8.6511   8.7256  12.8638  15.3642  17.7857  18.9076  20.5686  21.7873
    22.5352  23.1152  24.5904  27.7077  27.9477  30.6852  31.5362  32.6567
    33.4650  34.1699  34.7656  36.6456  36.7304  37.3269  37.6479  39.6456
    39.8453  41.0624  41.9754  43.8498

     occupation numbers 
     1.0000   1.0000   1.0000   1.0000   1.0000   1.0000   1.0000   1.0000
     1.0000   1.0000   1.0000   1.0000   1.0000   1.0000   1.0000   1.0000
     1.0000   1.0000   1.0000   1.0000   1.0000   1.0000   1.0000   1.0000
     1.0000   1.0000   0.0000   0.0000   0.0000   0.0000   0.0000   0.0000
     0.0000   0.0000   0.0000   0.0000   0.0000   0.0000   0.0000   0.0000
     0.0000   0.0000   0.0000   0.0000   0.0000   0.0000   0.0000   0.0000
     0.0000   0.0000   0.0000   0.0000

          k = 0.2500 0.1443 0.0000 (  1916 PWs)   bands (ev):

  -115.9195-115.9194 -69.5960 -69.5858 -69.5840 -69.5746 -69.5555 -69.5441
    -8.2547  -7.6828   3.0227   3.3569   3.3835   3.5494   3.6104   3.9048
     4.1987   4.3522   4.5455   4.8104   4.9482   6.6975   7.4127   7.7265
     8.8160   8.8759  12.4787  16.1187  17.3858  18.7752  20.7347  22.3450
    22.5200  23.3921  24.7146  27.0408  27.4580  29.9888  32.4560  33.3449
    33.7029  33.7435  34.7976  36.0169  37.3089  37.6210  37.7327  38.1212
    39.6350  40.5138  41.3420  44.1323

     occupation numbers 
     1.0000   1.0000   1.0000   1.0000   1.0000   1.0000   1.0000   1.0000
     1.0000   1.0000   1.0000   1.0000   1.0000   1.0000   1.0000   1.0000
     1.0000   1.0000   1.0000   1.0000   1.0000   1.0000   1.0000   1.0000
     1.0000   1.0000   0.0000   0.0000   0.0000   0.0000   0.0000   0.0000
     0.0000   0.0000   0.0000   0.0000   0.0000   0.0000   0.0000   0.0000
     0.0000   0.0000   0.0000   0.0000   0.0000   0.0000   0.0000   0.0000
     0.0000   0.0000   0.0000   0.0000

          k = 0.2500 0.1443 0.1561 (  1908 PWs)   bands (ev):

  -115.9195-115.9194 -69.5963 -69.5763 -69.5676 -69.5574 -69.5481 -69.5458
    -8.1713  -7.7660   2.9736   3.2091   3.4179   3.4824   3.5950   3.6528
     4.3317   4.3933   4.4921   4.6665   5.7735   6.8508   7.2992   7.9237
     8.6511   8.7256  12.8638  15.3642  17.7857  18.9076  20.5685  21.7874
    22.5352  23.1152  24.5904  27.7077  27.9477  30.6852  31.5362  32.6567
    33.4650  34.1699  34.7656  36.6456  36.7304  37.3269  37.6479  39.6456
    39.8452  41.0624  41.9755  43.8498

     occupation numbers 
     1.0000   1.0000   1.0000   1.0000   1.0000   1.0000   1.0000   1.0000
     1.0000   1.0000   1.0000   1.0000   1.0000   1.0000   1.0000   1.0000
     1.0000   1.0000   1.0000   1.0000   1.0000   1.0000   1.0000   1.0000
     1.0000   1.0000   0.0000   0.0000   0.0000   0.0000   0.0000   0.0000
     0.0000   0.0000   0.0000   0.0000   0.0000   0.0000   0.0000   0.0000
     0.0000   0.0000   0.0000   0.0000   0.0000   0.0000   0.0000   0.0000
     0.0000   0.0000   0.0000   0.0000

          k = 0.2500 0.1443-0.3121 (  1918 PWs)   bands (ev):

  -115.9195-115.9194 -69.5964 -69.5962 -69.5726 -69.5725 -69.5572 -69.5572
    -7.9694  -7.9694   2.9636   2.9637   3.4847   3.4848   3.4916   3.4916
     4.4434   4.4434   4.4652   4.4653   6.5210   6.5210   7.9416   7.9417
     8.3238   8.3239  13.9835  13.9836  18.5731  18.5731  20.6816  20.6817
    22.7084  22.7084  26.1170  26.1170  30.0845  30.0845  31.4850  31.4850
    33.5940  33.5940  35.7697  35.7698  37.3883  37.3883  39.3306  39.3307
    41.4956  41.4957  41.6186  41.6187

     occupation numbers 
     1.0000   1.0000   1.0000   1.0000   1.0000   1.0000   1.0000   1.0000
     1.0000   1.0000   1.0000   1.0000   1.0000   1.0000   1.0000   1.0000
     1.0000   1.0000   1.0000   1.0000   1.0000   1.0000   1.0000   1.0000
     1.0000   1.0000   0.0000   0.0000   0.0000   0.0000   0.0000   0.0000
     0.0000   0.0000   0.0000   0.0000   0.0000   0.0000   0.0000   0.0000
     0.0000   0.0000   0.0000   0.0000   0.0000   0.0000   0.0000   0.0000
     0.0000   0.0000   0.0000   0.0000

          k = 0.2500 0.1443-0.1561 (  1908 PWs)   bands (ev):

  -115.9195-115.9194 -69.5963 -69.5763 -69.5676 -69.5574 -69.5481 -69.5458
    -8.1713  -7.7660   2.9736   3.2091   3.4179   3.4824   3.5950   3.6529
     4.3317   4.3933   4.4921   4.6665   5.7735   6.8508   7.2991   7.9237
     8.6511   8.7256  12.8638  15.3642  17.7857  18.9076  20.5686  21.7873
    22.5352  23.1152  24.5904  27.7077  27.9477  30.6852  31.5362  32.6567
    33.4650  34.1699  34.7656  36.6456  36.7304  37.3269  37.6479  39.6456
    39.8453  41.0624  41.9754  43.8498

     occupation numbers 
     1.0000   1.0000   1.0000   1.0000   1.0000   1.0000   1.0000   1.0000
     1.0000   1.0000   1.0000   1.0000   1.0000   1.0000   1.0000   1.0000
     1.0000   1.0000   1.0000   1.0000   1.0000   1.0000   1.0000   1.0000
     1.0000   1.0000   0.0000   0.0000   0.0000   0.0000   0.0000   0.0000
     0.0000   0.0000   0.0000   0.0000   0.0000   0.0000   0.0000   0.0000
     0.0000   0.0000   0.0000   0.0000   0.0000   0.0000   0.0000   0.0000
     0.0000   0.0000   0.0000   0.0000

          k = 0.2500 0.4330 0.0000 (  1931 PWs)   bands (ev):

  -115.9194-115.9194 -69.6075 -69.5855 -69.5839 -69.5797 -69.5776 -69.5703
    -7.8639  -7.6120   3.2052   3.3577   3.6332   3.6438   3.9828   4.1341
     4.2088   4.3187   4.5620   4.8606   5.1445   5.8795   6.2945   6.5062
     7.8925   8.0327  15.0657  16.9197  17.6726  17.6754  20.2295  20.4751
    20.7720  23.5895  24.3441  27.8655  31.0854  31.6103  32.1168  32.2162
    33.6330  35.5641  35.7612  36.2447  36.4416  37.5524  38.3416  40.9588
    41.5800  44.0041  44.5643  45.6540

     occupation numbers 
     1.0000   1.0000   1.0000   1.0000   1.0000   1.0000   1.0000   1.0000
     1.0000   1.0000   1.0000   1.0000   1.0000   1.0000   1.0000   1.0000
     1.0000   1.0000   1.0000   1.0000   1.0000   1.0000   1.0000   1.0000
     1.0000   1.0000   0.0000   0.0000   0.0000   0.0000   0.0000   0.0000
     0.0000   0.0000   0.0000   0.0000   0.0000   0.0000   0.0000   0.0000
     0.0000   0.0000   0.0000   0.0000   0.0000   0.0000   0.0000   0.0000
     0.0000   0.0000   0.0000   0.0000

          k = 0.2500 0.4330 0.1561 (  1924 PWs)   bands (ev):

  -115.9194-115.9193 -69.6039 -69.5865 -69.5785 -69.5731 -69.5624 -69.5573
    -7.8227  -7.6433   3.2038   3.2214   3.5764   3.6027   3.8647   3.8869
     4.2922   4.4572   4.5893   4.8130   5.3389   5.8733   6.4121   7.0672
     7.6734   8.1802  15.1392  16.5250  17.7685  17.7963  19.3947  19.7823
    21.7789  24.4328  24.6605  27.0281  30.0039  30.1626  32.1882  33.0041
    34.3667  34.5826  36.3767  36.7187  38.2935  38.3610  39.0210  41.7007
    41.7825  43.3905  43.7986  45.3296

     occupation numbers 
     1.0000   1.0000   1.0000   1.0000   1.0000   1.0000   1.0000   1.0000
     1.0000   1.0000   1.0000   1.0000   1.0000   1.0000   1.0000   1.0000
     1.0000   1.0000   1.0000   1.0000   1.0000   1.0000   1.0000   1.0000
     1.0000   1.0000   0.0000   0.0000   0.0000   0.0000   0.0000   0.0000
     0.0000   0.0000   0.0000   0.0000   0.0000   0.0000   0.0000   0.0000
     0.0000   0.0000   0.0000   0.0000   0.0000   0.0000   0.0000   0.0000
     0.0000   0.0000   0.0000   0.0000

          k = 0.2500 0.4330-0.3121 (  1934 PWs)   bands (ev):

  -115.9194-115.9194 -69.6018 -69.6018 -69.5890 -69.5888 -69.5758 -69.5757
    -7.7285  -7.7285   3.1204   3.1204   3.5278   3.5278   3.7622   3.7622
     4.3735   4.3735   4.6704   4.6705   5.6010   5.6010   6.9718   6.9718
     8.0033   8.0034  15.6637  15.6638  17.9278  17.9279  19.0083  19.0084
    23.5026  23.5027  25.9804  25.9805  29.2062  29.2062  32.5796  32.5796
    34.5638  34.5638  36.9287  36.9288  39.8325  39.8326  40.7955  40.7956
    42.3659  42.3659  43.6563  43.6563

     occupation numbers 
     1.0000   1.0000   1.0000   1.0000   1.0000   1.0000   1.0000   1.0000
     1.0000   1.0000   1.0000   1.0000   1.0000   1.0000   1.0000   1.0000
     1.0000   1.0000   1.0000   1.0000   1.0000   1.0000   1.0000   1.0000
     1.0000   1.0000   0.0000   0.0000   0.0000   0.0000   0.0000   0.0000
     0.0000   0.0000   0.0000   0.0000   0.0000   0.0000   0.0000   0.0000
     0.0000   0.0000   0.0000   0.0000   0.0000   0.0000   0.0000   0.0000
     0.0000   0.0000   0.0000   0.0000

          k = 0.2500 0.4330-0.1561 (  1924 PWs)   bands (ev):

  -115.9194-115.9193 -69.6039 -69.5865 -69.5785 -69.5731 -69.5624 -69.5573
    -7.8227  -7.6433   3.2038   3.2214   3.5764   3.6027   3.8647   3.8869
     4.2922   4.4572   4.5893   4.8130   5.3389   5.8733   6.4121   7.0672
     7.6734   8.1802  15.1392  16.5250  17.7685  17.7963  19.3947  19.7823
    21.7789  24.4328  24.6605  27.0281  30.0039  30.1626  32.1882  33.0041
    34.3667  34.5826  36.3767  36.7187  38.2935  38.3610  39.0210  41.7007
    41.7825  43.3905  43.7986  45.3296

     occupation numbers 
     1.0000   1.0000   1.0000   1.0000   1.0000   1.0000   1.0000   1.0000
     1.0000   1.0000   1.0000   1.0000   1.0000   1.0000   1.0000   1.0000
     1.0000   1.0000   1.0000   1.0000   1.0000   1.0000   1.0000   1.0000
     1.0000   1.0000   0.0000   0.0000   0.0000   0.0000   0.0000   0.0000
     0.0000   0.0000   0.0000   0.0000   0.0000   0.0000   0.0000   0.0000
     0.0000   0.0000   0.0000   0.0000   0.0000   0.0000   0.0000   0.0000
     0.0000   0.0000   0.0000   0.0000

          k = 0.2500-0.4330 0.0000 (  1931 PWs)   bands (ev):

  -115.9194-115.9194 -69.6075 -69.5855 -69.5839 -69.5797 -69.5776 -69.5701
    -7.8640  -7.6120   3.2052   3.3578   3.6331   3.6431   3.9825   4.1336
     4.2088   4.3185   4.5621   4.8607   5.1458   5.8794   6.2952   6.5064
     7.8922   8.0332  15.0656  16.9187  17.6723  17.6757  20.2300  20.4746
    20.7714  23.5922  24.3424  27.8669  31.0856  31.6094  32.1153  32.2152
    33.6331  35.5649  35.7613  36.2461  36.4395  37.5507  38.3445  40.9582
    41.5805  44.0035  44.5656  45.6545

     occupation numbers 
     1.0000   1.0000   1.0000   1.0000   1.0000   1.0000   1.0000   1.0000
     1.0000   1.0000   1.0000   1.0000   1.0000   1.0000   1.0000   1.0000
     1.0000   1.0000   1.0000   1.0000   1.0000   1.0000   1.0000   1.0000
     1.0000   1.0000   0.0000   0.0000   0.0000   0.0000   0.0000   0.0000
     0.0000   0.0000   0.0000   0.0000   0.0000   0.0000   0.0000   0.0000
     0.0000   0.0000   0.0000   0.0000   0.0000   0.0000   0.0000   0.0000
     0.0000   0.0000   0.0000   0.0000

          k = 0.2500-0.4330 0.1561 (  1924 PWs)   bands (ev):

  -115.9194-115.9193 -69.6040 -69.5865 -69.5785 -69.5731 -69.5625 -69.5572
    -7.8228  -7.6433   3.2039   3.2215   3.5758   3.6028   3.8642   3.8863
     4.2924   4.4574   4.5894   4.8131   5.3398   5.8739   6.4119   7.0675
     7.6728   8.1806  15.1391  16.5242  17.7690  17.7961  19.3958  19.7816
    21.7775  24.4350  24.6599  27.0274  30.0041  30.1627  32.1875  33.0027
    34.3681  34.5828  36.3758  36.7195  38.2928  38.3625  39.0201  41.7011
    41.7820  43.3901  43.7980  45.3291

     occupation numbers 
     1.0000   1.0000   1.0000   1.0000   1.0000   1.0000   1.0000   1.0000
     1.0000   1.0000   1.0000   1.0000   1.0000   1.0000   1.0000   1.0000
     1.0000   1.0000   1.0000   1.0000   1.0000   1.0000   1.0000   1.0000
     1.0000   1.0000   0.0000   0.0000   0.0000   0.0000   0.0000   0.0000
     0.0000   0.0000   0.0000   0.0000   0.0000   0.0000   0.0000   0.0000
     0.0000   0.0000   0.0000   0.0000   0.0000   0.0000   0.0000   0.0000
     0.0000   0.0000   0.0000   0.0000

          k = 0.2500-0.4330-0.3121 (  1934 PWs)   bands (ev):

  -115.9194-115.9194 -69.6018 -69.6018 -69.5889 -69.5888 -69.5759 -69.5758
    -7.7285  -7.7285   3.1205   3.1205   3.5276   3.5277   3.7614   3.7615
     4.3737   4.3738   4.6705   4.6706   5.6018   5.6018   6.9716   6.9716
     8.0034   8.0034  15.6634  15.6635  17.9285  17.9285  19.0080  19.0081
    23.5016  23.5017  25.9811  25.9812  29.2061  29.2062  32.5786  32.5787
    34.5646  34.5647  36.9295  36.9295  39.8317  39.8317  40.7954  40.7954
    42.3663  42.3663  43.6559  43.6559

     occupation numbers 
     1.0000   1.0000   1.0000   1.0000   1.0000   1.0000   1.0000   1.0000
     1.0000   1.0000   1.0000   1.0000   1.0000   1.0000   1.0000   1.0000
     1.0000   1.0000   1.0000   1.0000   1.0000   1.0000   1.0000   1.0000
     1.0000   1.0000   0.0000   0.0000   0.0000   0.0000   0.0000   0.0000
     0.0000   0.0000   0.0000   0.0000   0.0000   0.0000   0.0000   0.0000
     0.0000   0.0000   0.0000   0.0000   0.0000   0.0000   0.0000   0.0000
     0.0000   0.0000   0.0000   0.0000

          k = 0.2500-0.4330-0.1561 (  1924 PWs)   bands (ev):

  -115.9194-115.9193 -69.6040 -69.5865 -69.5785 -69.5731 -69.5625 -69.5572
    -7.8228  -7.6433   3.2039   3.2215   3.5758   3.6028   3.8642   3.8863
     4.2924   4.4574   4.5894   4.8131   5.3398   5.8739   6.4119   7.0675
     7.6728   8.1806  15.1391  16.5242  17.7690  17.7961  19.3958  19.7816
    21.7775  24.4350  24.6599  27.0274  30.0041  30.1627  32.1875  33.0027
    34.3681  34.5828  36.3758  36.7195  38.2928  38.3625  39.0201  41.7011
    41.7820  43.3901  43.7980  45.3291

     occupation numbers 
     1.0000   1.0000   1.0000   1.0000   1.0000   1.0000   1.0000   1.0000
     1.0000   1.0000   1.0000   1.0000   1.0000   1.0000   1.0000   1.0000
     1.0000   1.0000   1.0000   1.0000   1.0000   1.0000   1.0000   1.0000
     1.0000   1.0000   0.0000   0.0000   0.0000   0.0000   0.0000   0.0000
     0.0000   0.0000   0.0000   0.0000   0.0000   0.0000   0.0000   0.0000
     0.0000   0.0000   0.0000   0.0000   0.0000   0.0000   0.0000   0.0000
     0.0000   0.0000   0.0000   0.0000

          k = 0.2500-0.1443 0.0000 (  1916 PWs)   bands (ev):

  -115.9195-115.9194 -69.5961 -69.5858 -69.5840 -69.5747 -69.5555 -69.5441
    -8.2548  -7.6828   3.0231   3.3565   3.3826   3.5498   3.6099   3.9049
     4.1991   4.3521   4.5457   4.8106   4.9478   6.6982   7.4133   7.7263
     8.8164   8.8761  12.4787  16.1184  17.3850  18.7745  20.7341  22.3453
    22.5205  23.3935  24.7140  27.0413  27.4583  29.9888  32.4553  33.3449
    33.7031  33.7431  34.7951  36.0157  37.3084  37.6220  37.7344  38.1206
    39.6350  40.5149  41.3437  44.1318

     occupation numbers 
     1.0000   1.0000   1.0000   1.0000   1.0000   1.0000   1.0000   1.0000
     1.0000   1.0000   1.0000   1.0000   1.0000   1.0000   1.0000   1.0000
     1.0000   1.0000   1.0000   1.0000   1.0000   1.0000   1.0000   1.0000
     1.0000   1.0000   0.0000   0.0000   0.0000   0.0000   0.0000   0.0000
     0.0000   0.0000   0.0000   0.0000   0.0000   0.0000   0.0000   0.0000
     0.0000   0.0000   0.0000   0.0000   0.0000   0.0000   0.0000   0.0000
     0.0000   0.0000   0.0000   0.0000

          k = 0.2500-0.1443 0.1561 (  1908 PWs)   bands (ev):

  -115.9195-115.9194 -69.5962 -69.5761 -69.5677 -69.5574 -69.5482 -69.5458
    -8.1713  -7.7660   2.9740   3.2090   3.4171   3.4826   3.5944   3.6531
     4.3320   4.3932   4.4922   4.6662   5.7736   6.8513   7.2998   7.9236
     8.6514   8.7256  12.8639  15.3641  17.7851  18.9067  20.5685  21.7871
    22.5360  23.1165  24.5895  27.7084  27.9479  30.6845  31.5353  32.6557
    33.4655  34.1696  34.7654  36.6462  36.7308  37.3275  37.6479  39.6449
    39.8468  41.0618  41.9755  43.8499

     occupation numbers 
     1.0000   1.0000   1.0000   1.0000   1.0000   1.0000   1.0000   1.0000
     1.0000   1.0000   1.0000   1.0000   1.0000   1.0000   1.0000   1.0000
     1.0000   1.0000   1.0000   1.0000   1.0000   1.0000   1.0000   1.0000
     1.0000   1.0000   0.0000   0.0000   0.0000   0.0000   0.0000   0.0000
     0.0000   0.0000   0.0000   0.0000   0.0000   0.0000   0.0000   0.0000
     0.0000   0.0000   0.0000   0.0000   0.0000   0.0000   0.0000   0.0000
     0.0000   0.0000   0.0000   0.0000

          k = 0.2500-0.1443-0.3121 (  1918 PWs)   bands (ev):

  -115.9195-115.9194 -69.5964 -69.5962 -69.5726 -69.5726 -69.5572 -69.5571
    -7.9695  -7.9694   2.9638   2.9638   3.4850   3.4850   3.4909   3.4909
     4.4434   4.4434   4.4652   4.4653   6.5213   6.5214   7.9420   7.9420
     8.3238   8.3238  13.9837  13.9837  18.5724  18.5724  20.6814  20.6814
    22.7095  22.7095  26.1163  26.1163  30.0840  30.0841  31.4847  31.4848
    33.5943  33.5944  35.7699  35.7699  37.3893  37.3893  39.3306  39.3306
    41.4953  41.4953  41.6182  41.6182

     occupation numbers 
     1.0000   1.0000   1.0000   1.0000   1.0000   1.0000   1.0000   1.0000
     1.0000   1.0000   1.0000   1.0000   1.0000   1.0000   1.0000   1.0000
     1.0000   1.0000   1.0000   1.0000   1.0000   1.0000   1.0000   1.0000
     1.0000   1.0000   0.0000   0.0000   0.0000   0.0000   0.0000   0.0000
     0.0000   0.0000   0.0000   0.0000   0.0000   0.0000   0.0000   0.0000
     0.0000   0.0000   0.0000   0.0000   0.0000   0.0000   0.0000   0.0000
     0.0000   0.0000   0.0000   0.0000

          k = 0.2500-0.1443-0.1561 (  1908 PWs)   bands (ev):

  -115.9195-115.9194 -69.5962 -69.5761 -69.5677 -69.5574 -69.5482 -69.5458
    -8.1713  -7.7660   2.9740   3.2090   3.4171   3.4827   3.5944   3.6531
     4.3320   4.3932   4.4922   4.6662   5.7736   6.8513   7.2998   7.9236
     8.6514   8.7256  12.8639  15.3641  17.7851  18.9067  20.5685  21.7871
    22.5360  23.1165  24.5895  27.7083  27.9479  30.6844  31.5354  32.6557
    33.4655  34.1696  34.7654  36.6462  36.7308  37.3275  37.6479  39.6448
    39.8467  41.0618  41.9755  43.8499

     occupation numbers 
     1.0000   1.0000   1.0000   1.0000   1.0000   1.0000   1.0000   1.0000
     1.0000   1.0000   1.0000   1.0000   1.0000   1.0000   1.0000   1.0000
     1.0000   1.0000   1.0000   1.0000   1.0000   1.0000   1.0000   1.0000
     1.0000   1.0000   0.0000   0.0000   0.0000   0.0000   0.0000   0.0000
     0.0000   0.0000   0.0000   0.0000   0.0000   0.0000   0.0000   0.0000
     0.0000   0.0000   0.0000   0.0000   0.0000   0.0000   0.0000   0.0000
     0.0000   0.0000   0.0000   0.0000

          k =-0.5000-0.2887 0.0000 (  1906 PWs)   bands (ev):

  -115.9194-115.9193 -69.5740 -69.5667 -69.5624 -69.5596 -69.5551 -69.5491
    -7.8515  -7.6173   3.0761   3.3608   3.5112   3.9247   3.9532   3.9667
     4.3722   4.4892   4.5990   4.7302   5.2828   5.5430   6.3687   6.9827
     7.9934   8.4196  14.9270  16.0725  16.8686  17.5582  19.8087  21.5736
    22.4780  23.4330  24.9912  27.8041  28.3589  29.7073  32.3227  34.0258
    34.2548  35.1943  36.6319  36.8001  37.5774  38.6274  40.5860  41.8670
    42.0077  42.4942  42.5903  43.6958

     occupation numbers 
     1.0000   1.0000   1.0000   1.0000   1.0000   1.0000   1.0000   1.0000
     1.0000   1.0000   1.0000   1.0000   1.0000   1.0000   1.0000   1.0000
     1.0000   1.0000   1.0000   1.0000   1.0000   1.0000   1.0000   1.0000
     1.0000   1.0000   0.0000   0.0000   0.0000   0.0000   0.0000   0.0000
     0.0000   0.0000   0.0000   0.0000   0.0000   0.0000   0.0000   0.0000
     0.0000   0.0000   0.0000   0.0000   0.0000   0.0000   0.0000   0.0000
     0.0000   0.0000   0.0000   0.0000

          k =-0.5000-0.2887 0.1561 (  1932 PWs)   bands (ev):

  -115.9194-115.9194 -69.5980 -69.5950 -69.5892 -69.5843 -69.5843 -69.5729
    -7.8132  -7.6473   2.9824   3.1470   3.5248   3.8322   3.8390   3.8443
     4.4436   4.4695   4.4857   4.6792   5.1578   5.4052   6.9855   7.1834
     8.1423   8.1998  14.6499  15.6918  17.2071  17.6557  19.6773  21.7139
    22.5906  23.2548  23.8732  27.7259  30.2530  30.3248  30.3365  33.7378
    34.6991  35.3955  35.6672  36.3583  38.7681  38.9775  40.6601  42.0517
    42.2113  42.2808  44.1079  44.7554

     occupation numbers 
     1.0000   1.0000   1.0000   1.0000   1.0000   1.0000   1.0000   1.0000
     1.0000   1.0000   1.0000   1.0000   1.0000   1.0000   1.0000   1.0000
     1.0000   1.0000   1.0000   1.0000   1.0000   1.0000   1.0000   1.0000
     1.0000   1.0000   0.0000   0.0000   0.0000   0.0000   0.0000   0.0000
     0.0000   0.0000   0.0000   0.0000   0.0000   0.0000   0.0000   0.0000
     0.0000   0.0000   0.0000   0.0000   0.0000   0.0000   0.0000   0.0000
     0.0000   0.0000   0.0000   0.0000

          k =-0.5000-0.2887-0.3121 (  1924 PWs)   bands (ev):

  -115.9194-115.9194 -69.5896 -69.5895 -69.5733 -69.5732 -69.5713 -69.5713
    -7.7243  -7.7243   2.9595   2.9595   3.6826   3.6827   3.8017   3.8018
     4.4767   4.4767   4.6295   4.6295   5.2413   5.2413   7.7057   7.7057
     7.8922   7.8922  14.8885  14.8885  17.5929  17.5930  20.4171  20.4172
    22.9125  22.9125  25.3814  25.3815  30.9354  30.9355  32.1756  32.1757
    34.5180  34.5181  35.6866  35.6866  39.8769  39.8770  41.7201  41.7202
    42.5460  42.5460  44.4031  44.4032

     occupation numbers 
     1.0000   1.0000   1.0000   1.0000   1.0000   1.0000   1.0000   1.0000
     1.0000   1.0000   1.0000   1.0000   1.0000   1.0000   1.0000   1.0000
     1.0000   1.0000   1.0000   1.0000   1.0000   1.0000   1.0000   1.0000
     1.0000   1.0000   0.0000   0.0000   0.0000   0.0000   0.0000   0.0000
     0.0000   0.0000   0.0000   0.0000   0.0000   0.0000   0.0000   0.0000
     0.0000   0.0000   0.0000   0.0000   0.0000   0.0000   0.0000   0.0000
     0.0000   0.0000   0.0000   0.0000

          k =-0.5000-0.2887-0.1561 (  1932 PWs)   bands (ev):

  -115.9194-115.9194 -69.5980 -69.5950 -69.5892 -69.5843 -69.5843 -69.5729
    -7.8132  -7.6473   2.9824   3.1470   3.5248   3.8322   3.8390   3.8443
     4.4436   4.4695   4.4857   4.6792   5.1578   5.4052   6.9855   7.1834
     8.1423   8.1998  14.6499  15.6918  17.2071  17.6557  19.6773  21.7139
    22.5906  23.2548  23.8732  27.7259  30.2530  30.3248  30.3365  33.7378
    34.6991  35.3955  35.6672  36.3583  38.7681  38.9775  40.6601  42.0517
    42.2113  42.2808  44.1079  44.7554

     occupation numbers 
     1.0000   1.0000   1.0000   1.0000   1.0000   1.0000   1.0000   1.0000
     1.0000   1.0000   1.0000   1.0000   1.0000   1.0000   1.0000   1.0000
     1.0000   1.0000   1.0000   1.0000   1.0000   1.0000   1.0000   1.0000
     1.0000   1.0000   0.0000   0.0000   0.0000   0.0000   0.0000   0.0000
     0.0000   0.0000   0.0000   0.0000   0.0000   0.0000   0.0000   0.0000
     0.0000   0.0000   0.0000   0.0000   0.0000   0.0000   0.0000   0.0000
     0.0000   0.0000   0.0000   0.0000

          k =-0.5000 0.0000 0.0000 (  1931 PWs)   bands (ev):

  -115.9194-115.9194 -69.6075 -69.5855 -69.5839 -69.5797 -69.5776 -69.5701
    -7.8640  -7.6120   3.2052   3.3578   3.6331   3.6431   3.9825   4.1336
     4.2088   4.3185   4.5621   4.8607   5.1458   5.8794   6.2952   6.5064
     7.8922   8.0332  15.0656  16.9187  17.6723  17.6757  20.2300  20.4746
    20.7714  23.5922  24.3424  27.8669  31.0856  31.6094  32.1153  32.2152
    33.6331  35.5649  35.7613  36.2461  36.4395  37.5507  38.3445  40.9582
    41.5805  44.0035  44.5656  45.6545

     occupation numbers 
     1.0000   1.0000   1.0000   1.0000   1.0000   1.0000   1.0000   1.0000
     1.0000   1.0000   1.0000   1.0000   1.0000   1.0000   1.0000   1.0000
     1.0000   1.0000   1.0000   1.0000   1.0000   1.0000   1.0000   1.0000
     1.0000   1.0000   0.0000   0.0000   0.0000   0.0000   0.0000   0.0000
     0.0000   0.0000   0.0000   0.0000   0.0000   0.0000   0.0000   0.0000
     0.0000   0.0000   0.0000   0.0000   0.0000   0.0000   0.0000   0.0000
     0.0000   0.0000   0.0000   0.0000

          k =-0.5000 0.0000 0.1561 (  1924 PWs)   bands (ev):

  -115.9194-115.9193 -69.6040 -69.5865 -69.5785 -69.5731 -69.5625 -69.5572
    -7.8228  -7.6433   3.2039   3.2215   3.5758   3.6028   3.8642   3.8863
     4.2924   4.4574   4.5894   4.8131   5.3398   5.8739   6.4119   7.0675
     7.6728   8.1806  15.1391  16.5242  17.7690  17.7961  19.3958  19.7816
    21.7775  24.4350  24.6599  27.0274  30.0041  30.1627  32.1875  33.0027
    34.3681  34.5828  36.3758  36.7195  38.2928  38.3625  39.0201  41.7011
    41.7820  43.3901  43.7980  45.3291

     occupation numbers 
     1.0000   1.0000   1.0000   1.0000   1.0000   1.0000   1.0000   1.0000
     1.0000   1.0000   1.0000   1.0000   1.0000   1.0000   1.0000   1.0000
     1.0000   1.0000   1.0000   1.0000   1.0000   1.0000   1.0000   1.0000
     1.0000   1.0000   0.0000   0.0000   0.0000   0.0000   0.0000   0.0000
     0.0000   0.0000   0.0000   0.0000   0.0000   0.0000   0.0000   0.0000
     0.0000   0.0000   0.0000   0.0000   0.0000   0.0000   0.0000   0.0000
     0.0000   0.0000   0.0000   0.0000

          k =-0.5000 0.0000-0.3121 (  1934 PWs)   bands (ev):

  -115.9194-115.9194 -69.6018 -69.6018 -69.5889 -69.5888 -69.5759 -69.5758
    -7.7285  -7.7285   3.1205   3.1205   3.5276   3.5277   3.7614   3.7615
     4.3737   4.3738   4.6705   4.6706   5.6018   5.6018   6.9716   6.9716
     8.0034   8.0034  15.6634  15.6635  17.9285  17.9285  19.0080  19.0081
    23.5016  23.5017  25.9811  25.9812  29.2061  29.2062  32.5786  32.5787
    34.5646  34.5647  36.9295  36.9295  39.8317  39.8317  40.7954  40.7954
    42.3663  42.3663  43.6559  43.6559

     occupation numbers 
     1.0000   1.0000   1.0000   1.0000   1.0000   1.0000   1.0000   1.0000
     1.0000   1.0000   1.0000   1.0000   1.0000   1.0000   1.0000   1.0000
     1.0000   1.0000   1.0000   1.0000   1.0000   1.0000   1.0000   1.0000
     1.0000   1.0000   0.0000   0.0000   0.0000   0.0000   0.0000   0.0000
     0.0000   0.0000   0.0000   0.0000   0.0000   0.0000   0.0000   0.0000
     0.0000   0.0000   0.0000   0.0000   0.0000   0.0000   0.0000   0.0000
     0.0000   0.0000   0.0000   0.0000

          k =-0.5000 0.0000-0.1561 (  1924 PWs)   bands (ev):

  -115.9194-115.9193 -69.6040 -69.5865 -69.5785 -69.5731 -69.5625 -69.5572
    -7.8228  -7.6433   3.2039   3.2215   3.5758   3.6028   3.8642   3.8863
     4.2924   4.4574   4.5894   4.8131   5.3398   5.8739   6.4119   7.0675
     7.6728   8.1806  15.1391  16.5242  17.7690  17.7961  19.3958  19.7816
    21.7775  24.4350  24.6599  27.0274  30.0041  30.1627  32.1875  33.0027
    34.3681  34.5828  36.3758  36.7195  38.2928  38.3625  39.0201  41.7011
    41.7820  43.3901  43.7980  45.3291

     occupation numbers 
     1.0000   1.0000   1.0000   1.0000   1.0000   1.0000   1.0000   1.0000
     1.0000   1.0000   1.0000   1.0000   1.0000   1.0000   1.0000   1.0000
     1.0000   1.0000   1.0000   1.0000   1.0000   1.0000   1.0000   1.0000
     1.0000   1.0000   0.0000   0.0000   0.0000   0.0000   0.0000   0.0000
     0.0000   0.0000   0.0000   0.0000   0.0000   0.0000   0.0000   0.0000
     0.0000   0.0000   0.0000   0.0000   0.0000   0.0000   0.0000   0.0000
     0.0000   0.0000   0.0000   0.0000

          k =-0.5000-0.8660 0.0000 (  1906 PWs)   bands (ev):

  -115.9194-115.9193 -69.5738 -69.5667 -69.5625 -69.5599 -69.5550 -69.5491
    -7.8518  -7.6171   3.0762   3.3603   3.5101   3.9244   3.9540   3.9657
     4.3724   4.4890   4.5992   4.7309   5.2835   5.5440   6.3675   6.9832
     7.9949   8.4202  14.9264  16.0723  16.8667  17.5576  19.8103  21.5734
    22.4782  23.4338  24.9902  27.8064  28.3577  29.7085  32.3205  34.0257
    34.2537  35.1939  36.6318  36.7973  37.5766  38.6289  40.5861  41.8671
    42.0076  42.4958  42.5928  43.6960

     occupation numbers 
     1.0000   1.0000   1.0000   1.0000   1.0000   1.0000   1.0000   1.0000
     1.0000   1.0000   1.0000   1.0000   1.0000   1.0000   1.0000   1.0000
     1.0000   1.0000   1.0000   1.0000   1.0000   1.0000   1.0000   1.0000
     1.0000   1.0000   0.0000   0.0000   0.0000   0.0000   0.0000   0.0000
     0.0000   0.0000   0.0000   0.0000   0.0000   0.0000   0.0000   0.0000
     0.0000   0.0000   0.0000   0.0000   0.0000   0.0000   0.0000   0.0000
     0.0000   0.0000   0.0000   0.0000

          k =-0.5000-0.8660 0.1561 (  1932 PWs)   bands (ev):

  -115.9194-115.9194 -69.5980 -69.5951 -69.5891 -69.5845 -69.5842 -69.5729
    -7.8134  -7.6473   2.9824   3.1467   3.5237   3.8322   3.8380   3.8449
     4.4434   4.4695   4.4859   4.6796   5.1582   5.4060   6.9850   7.1839
     8.1434   8.2003  14.6495  15.6919  17.2056  17.6551  19.6783  21.7138
    22.5909  23.2555  23.8719  27.7267  30.2522  30.3242  30.3375  33.7375
    34.6987  35.3954  35.6664  36.3561  38.7669  38.9791  40.6608  42.0539
    42.2115  42.2828  44.1062  44.7584

     occupation numbers 
     1.0000   1.0000   1.0000   1.0000   1.0000   1.0000   1.0000   1.0000
     1.0000   1.0000   1.0000   1.0000   1.0000   1.0000   1.0000   1.0000
     1.0000   1.0000   1.0000   1.0000   1.0000   1.0000   1.0000   1.0000
     1.0000   1.0000   0.0000   0.0000   0.0000   0.0000   0.0000   0.0000
     0.0000   0.0000   0.0000   0.0000   0.0000   0.0000   0.0000   0.0000
     0.0000   0.0000   0.0000   0.0000   0.0000   0.0000   0.0000   0.0000
     0.0000   0.0000   0.0000   0.0000

          k =-0.5000-0.8660-0.3121 (  1924 PWs)   bands (ev):

  -115.9194-115.9194 -69.5895 -69.5893 -69.5735 -69.5733 -69.5713 -69.5712
    -7.7244  -7.7244   2.9595   2.9595   3.6817   3.6817   3.8020   3.8021
     4.4766   4.4766   4.6297   4.6298   5.2417   5.2417   7.7062   7.7062
     7.8924   7.8924  14.8888  14.8888  17.5920  17.5920  20.4172  20.4173
    22.9130  22.9131  25.3804  25.3805  30.9359  30.9360  32.1761  32.1762
    34.5174  34.5174  35.6853  35.6853  39.8774  39.8774  41.7213  41.7214
    42.5475  42.5476  44.4030  44.4030

     occupation numbers 
     1.0000   1.0000   1.0000   1.0000   1.0000   1.0000   1.0000   1.0000
     1.0000   1.0000   1.0000   1.0000   1.0000   1.0000   1.0000   1.0000
     1.0000   1.0000   1.0000   1.0000   1.0000   1.0000   1.0000   1.0000
     1.0000   1.0000   0.0000   0.0000   0.0000   0.0000   0.0000   0.0000
     0.0000   0.0000   0.0000   0.0000   0.0000   0.0000   0.0000   0.0000
     0.0000   0.0000   0.0000   0.0000   0.0000   0.0000   0.0000   0.0000
     0.0000   0.0000   0.0000   0.0000

          k =-0.5000-0.8660-0.1561 (  1932 PWs)   bands (ev):

  -115.9194-115.9194 -69.5980 -69.5951 -69.5891 -69.5845 -69.5842 -69.5729
    -7.8134  -7.6473   2.9824   3.1467   3.5237   3.8322   3.8380   3.8449
     4.4434   4.4695   4.4859   4.6796   5.1582   5.4060   6.9850   7.1839
     8.1434   8.2003  14.6495  15.6919  17.2056  17.6551  19.6783  21.7138
    22.5909  23.2555  23.8719  27.7267  30.2522  30.3242  30.3375  33.7375
    34.6987  35.3954  35.6664  36.3561  38.7669  38.9791  40.6608  42.0539
    42.2115  42.2828  44.1062  44.7584

     occupation numbers 
     1.0000   1.0000   1.0000   1.0000   1.0000   1.0000   1.0000   1.0000
     1.0000   1.0000   1.0000   1.0000   1.0000   1.0000   1.0000   1.0000
     1.0000   1.0000   1.0000   1.0000   1.0000   1.0000   1.0000   1.0000
     1.0000   1.0000   0.0000   0.0000   0.0000   0.0000   0.0000   0.0000
     0.0000   0.0000   0.0000   0.0000   0.0000   0.0000   0.0000   0.0000
     0.0000   0.0000   0.0000   0.0000   0.0000   0.0000   0.0000   0.0000
     0.0000   0.0000   0.0000   0.0000

          k =-0.5000-0.5774 0.0000 (  1931 PWs)   bands (ev):

  -115.9194-115.9194 -69.6075 -69.5855 -69.5839 -69.5797 -69.5776 -69.5701
    -7.8640  -7.6120   3.2052   3.3578   3.6331   3.6431   3.9825   4.1336
     4.2088   4.3185   4.5621   4.8607   5.1458   5.8794   6.2952   6.5064
     7.8922   8.0332  15.0656  16.9187  17.6723  17.6757  20.2300  20.4746
    20.7714  23.5922  24.3424  27.8669  31.0856  31.6094  32.1153  32.2152
    33.6331  35.5649  35.7613  36.2461  36.4395  37.5507  38.3445  40.9582
    41.5805  44.0035  44.5656  45.6545

     occupation numbers 
     1.0000   1.0000   1.0000   1.0000   1.0000   1.0000   1.0000   1.0000
     1.0000   1.0000   1.0000   1.0000   1.0000   1.0000   1.0000   1.0000
     1.0000   1.0000   1.0000   1.0000   1.0000   1.0000   1.0000   1.0000
     1.0000   1.0000   0.0000   0.0000   0.0000   0.0000   0.0000   0.0000
     0.0000   0.0000   0.0000   0.0000   0.0000   0.0000   0.0000   0.0000
     0.0000   0.0000   0.0000   0.0000   0.0000   0.0000   0.0000   0.0000
     0.0000   0.0000   0.0000   0.0000

          k =-0.5000-0.5774 0.1561 (  1924 PWs)   bands (ev):

  -115.9194-115.9193 -69.6040 -69.5865 -69.5785 -69.5731 -69.5625 -69.5572
    -7.8228  -7.6433   3.2039   3.2215   3.5758   3.6028   3.8642   3.8863
     4.2924   4.4574   4.5894   4.8131   5.3398   5.8739   6.4119   7.0675
     7.6728   8.1806  15.1391  16.5242  17.7690  17.7961  19.3958  19.7816
    21.7775  24.4350  24.6599  27.0274  30.0041  30.1627  32.1875  33.0027
    34.3681  34.5828  36.3758  36.7195  38.2928  38.3625  39.0201  41.7011
    41.7820  43.3901  43.7980  45.3291

     occupation numbers 
     1.0000   1.0000   1.0000   1.0000   1.0000   1.0000   1.0000   1.0000
     1.0000   1.0000   1.0000   1.0000   1.0000   1.0000   1.0000   1.0000
     1.0000   1.0000   1.0000   1.0000   1.0000   1.0000   1.0000   1.0000
     1.0000   1.0000   0.0000   0.0000   0.0000   0.0000   0.0000   0.0000
     0.0000   0.0000   0.0000   0.0000   0.0000   0.0000   0.0000   0.0000
     0.0000   0.0000   0.0000   0.0000   0.0000   0.0000   0.0000   0.0000
     0.0000   0.0000   0.0000   0.0000

          k =-0.5000-0.5774-0.3121 (  1934 PWs)   bands (ev):

  -115.9194-115.9194 -69.6018 -69.6018 -69.5889 -69.5888 -69.5759 -69.5758
    -7.7285  -7.7285   3.1205   3.1205   3.5276   3.5277   3.7614   3.7615
     4.3737   4.3738   4.6705   4.6706   5.6018   5.6018   6.9716   6.9716
     8.0034   8.0034  15.6634  15.6635  17.9285  17.9285  19.0080  19.0081
    23.5016  23.5017  25.9811  25.9812  29.2061  29.2062  32.5786  32.5787
    34.5646  34.5647  36.9295  36.9295  39.8317  39.8317  40.7954  40.7954
    42.3663  42.3663  43.6559  43.6559

     occupation numbers 
     1.0000   1.0000   1.0000   1.0000   1.0000   1.0000   1.0000   1.0000
     1.0000   1.0000   1.0000   1.0000   1.0000   1.0000   1.0000   1.0000
     1.0000   1.0000   1.0000   1.0000   1.0000   1.0000   1.0000   1.0000
     1.0000   1.0000   0.0000   0.0000   0.0000   0.0000   0.0000   0.0000
     0.0000   0.0000   0.0000   0.0000   0.0000   0.0000   0.0000   0.0000
     0.0000   0.0000   0.0000   0.0000   0.0000   0.0000   0.0000   0.0000
     0.0000   0.0000   0.0000   0.0000

          k =-0.5000-0.5774-0.1561 (  1924 PWs)   bands (ev):

  -115.9194-115.9193 -69.6040 -69.5865 -69.5785 -69.5731 -69.5625 -69.5572
    -7.8228  -7.6433   3.2039   3.2215   3.5758   3.6028   3.8642   3.8863
     4.2924   4.4574   4.5894   4.8131   5.3398   5.8739   6.4119   7.0675
     7.6728   8.1806  15.1391  16.5242  17.7690  17.7961  19.3958  19.7816
    21.7775  24.4350  24.6599  27.0274  30.0041  30.1627  32.1875  33.0027
    34.3681  34.5828  36.3758  36.7195  38.2928  38.3625  39.0201  41.7011
    41.7820  43.3901  43.7980  45.3291

     occupation numbers 
     1.0000   1.0000   1.0000   1.0000   1.0000   1.0000   1.0000   1.0000
     1.0000   1.0000   1.0000   1.0000   1.0000   1.0000   1.0000   1.0000
     1.0000   1.0000   1.0000   1.0000   1.0000   1.0000   1.0000   1.0000
     1.0000   1.0000   0.0000   0.0000   0.0000   0.0000   0.0000   0.0000
     0.0000   0.0000   0.0000   0.0000   0.0000   0.0000   0.0000   0.0000
     0.0000   0.0000   0.0000   0.0000   0.0000   0.0000   0.0000   0.0000
     0.0000   0.0000   0.0000   0.0000

          k =-0.2500-0.1443 0.0000 (  1916 PWs)   bands (ev):

  -115.9195-115.9194 -69.5960 -69.5858 -69.5840 -69.5746 -69.5555 -69.5441
    -8.2547  -7.6828   3.0227   3.3569   3.3835   3.5494   3.6104   3.9048
     4.1987   4.3522   4.5455   4.8104   4.9482   6.6975   7.4127   7.7265
     8.8160   8.8759  12.4787  16.1187  17.3858  18.7752  20.7347  22.3450
    22.5200  23.3921  24.7146  27.0408  27.4580  29.9888  32.4560  33.3449
    33.7029  33.7435  34.7976  36.0169  37.3089  37.6210  37.7327  38.1212
    39.6350  40.5138  41.3420  44.1323

     occupation numbers 
     1.0000   1.0000   1.0000   1.0000   1.0000   1.0000   1.0000   1.0000
     1.0000   1.0000   1.0000   1.0000   1.0000   1.0000   1.0000   1.0000
     1.0000   1.0000   1.0000   1.0000   1.0000   1.0000   1.0000   1.0000
     1.0000   1.0000   0.0000   0.0000   0.0000   0.0000   0.0000   0.0000
     0.0000   0.0000   0.0000   0.0000   0.0000   0.0000   0.0000   0.0000
     0.0000   0.0000   0.0000   0.0000   0.0000   0.0000   0.0000   0.0000
     0.0000   0.0000   0.0000   0.0000

          k =-0.2500-0.1443 0.1561 (  1908 PWs)   bands (ev):

  -115.9195-115.9194 -69.5963 -69.5763 -69.5676 -69.5574 -69.5481 -69.5458
    -8.1713  -7.7660   2.9736   3.2091   3.4179   3.4824   3.5950   3.6529
     4.3317   4.3933   4.4921   4.6665   5.7735   6.8508   7.2991   7.9237
     8.6511   8.7256  12.8638  15.3642  17.7857  18.9076  20.5686  21.7873
    22.5352  23.1152  24.5904  27.7077  27.9477  30.6852  31.5362  32.6567
    33.4650  34.1699  34.7656  36.6456  36.7304  37.3269  37.6479  39.6456
    39.8453  41.0624  41.9754  43.8498

     occupation numbers 
     1.0000   1.0000   1.0000   1.0000   1.0000   1.0000   1.0000   1.0000
     1.0000   1.0000   1.0000   1.0000   1.0000   1.0000   1.0000   1.0000
     1.0000   1.0000   1.0000   1.0000   1.0000   1.0000   1.0000   1.0000
     1.0000   1.0000   0.0000   0.0000   0.0000   0.0000   0.0000   0.0000
     0.0000   0.0000   0.0000   0.0000   0.0000   0.0000   0.0000   0.0000
     0.0000   0.0000   0.0000   0.0000   0.0000   0.0000   0.0000   0.0000
     0.0000   0.0000   0.0000   0.0000

          k =-0.2500-0.1443-0.3121 (  1918 PWs)   bands (ev):

  -115.9195-115.9194 -69.5964 -69.5962 -69.5726 -69.5725 -69.5572 -69.5572
    -7.9694  -7.9694   2.9636   2.9637   3.4847   3.4848   3.4916   3.4916
     4.4434   4.4434   4.4652   4.4653   6.5210   6.5210   7.9416   7.9417
     8.3238   8.3239  13.9835  13.9836  18.5731  18.5731  20.6816  20.6817
    22.7084  22.7084  26.1170  26.1170  30.0845  30.0845  31.4850  31.4850
    33.5940  33.5940  35.7697  35.7698  37.3883  37.3883  39.3306  39.3307
    41.4956  41.4957  41.6186  41.6187

     occupation numbers 
     1.0000   1.0000   1.0000   1.0000   1.0000   1.0000   1.0000   1.0000
     1.0000   1.0000   1.0000   1.0000   1.0000   1.0000   1.0000   1.0000
     1.0000   1.0000   1.0000   1.0000   1.0000   1.0000   1.0000   1.0000
     1.0000   1.0000   0.0000   0.0000   0.0000   0.0000   0.0000   0.0000
     0.0000   0.0000   0.0000   0.0000   0.0000   0.0000   0.0000   0.0000
     0.0000   0.0000   0.0000   0.0000   0.0000   0.0000   0.0000   0.0000
     0.0000   0.0000   0.0000   0.0000

          k =-0.2500-0.1443-0.1561 (  1908 PWs)   bands (ev):

  -115.9195-115.9194 -69.5963 -69.5763 -69.5676 -69.5574 -69.5481 -69.5458
    -8.1713  -7.7660   2.9736   3.2091   3.4179   3.4824   3.5950   3.6528
     4.3317   4.3933   4.4921   4.6665   5.7735   6.8508   7.2992   7.9237
     8.6511   8.7256  12.8638  15.3642  17.7857  18.9076  20.5685  21.7874
    22.5352  23.1152  24.5904  27.7077  27.9477  30.6852  31.5362  32.6567
    33.4650  34.1699  34.7656  36.6456  36.7304  37.3269  37.6479  39.6456
    39.8452  41.0624  41.9755  43.8498

     occupation numbers 
     1.0000   1.0000   1.0000   1.0000   1.0000   1.0000   1.0000   1.0000
     1.0000   1.0000   1.0000   1.0000   1.0000   1.0000   1.0000   1.0000
     1.0000   1.0000   1.0000   1.0000   1.0000   1.0000   1.0000   1.0000
     1.0000   1.0000   0.0000   0.0000   0.0000   0.0000   0.0000   0.0000
     0.0000   0.0000   0.0000   0.0000   0.0000   0.0000   0.0000   0.0000
     0.0000   0.0000   0.0000   0.0000   0.0000   0.0000   0.0000   0.0000
     0.0000   0.0000   0.0000   0.0000

          k =-0.2500 0.1443 0.0000 (  1916 PWs)   bands (ev):

  -115.9195-115.9194 -69.5961 -69.5858 -69.5840 -69.5747 -69.5555 -69.5441
    -8.2548  -7.6828   3.0231   3.3565   3.3826   3.5498   3.6099   3.9049
     4.1991   4.3521   4.5457   4.8106   4.9478   6.6982   7.4133   7.7263
     8.8164   8.8761  12.4787  16.1184  17.3850  18.7745  20.7341  22.3453
    22.5205  23.3935  24.7140  27.0413  27.4583  29.9888  32.4553  33.3449
    33.7031  33.7431  34.7951  36.0157  37.3084  37.6220  37.7344  38.1206
    39.6350  40.5149  41.3437  44.1318

     occupation numbers 
     1.0000   1.0000   1.0000   1.0000   1.0000   1.0000   1.0000   1.0000
     1.0000   1.0000   1.0000   1.0000   1.0000   1.0000   1.0000   1.0000
     1.0000   1.0000   1.0000   1.0000   1.0000   1.0000   1.0000   1.0000
     1.0000   1.0000   0.0000   0.0000   0.0000   0.0000   0.0000   0.0000
     0.0000   0.0000   0.0000   0.0000   0.0000   0.0000   0.0000   0.0000
     0.0000   0.0000   0.0000   0.0000   0.0000   0.0000   0.0000   0.0000
     0.0000   0.0000   0.0000   0.0000

          k =-0.2500 0.1443 0.1561 (  1908 PWs)   bands (ev):

  -115.9195-115.9194 -69.5962 -69.5761 -69.5677 -69.5574 -69.5482 -69.5458
    -8.1713  -7.7660   2.9740   3.2090   3.4171   3.4827   3.5944   3.6531
     4.3320   4.3932   4.4922   4.6662   5.7736   6.8513   7.2998   7.9236
     8.6514   8.7256  12.8639  15.3641  17.7851  18.9067  20.5685  21.7871
    22.5360  23.1165  24.5895  27.7083  27.9479  30.6844  31.5354  32.6557
    33.4655  34.1696  34.7654  36.6462  36.7308  37.3275  37.6479  39.6448
    39.8467  41.0618  41.9755  43.8499

     occupation numbers 
     1.0000   1.0000   1.0000   1.0000   1.0000   1.0000   1.0000   1.0000
     1.0000   1.0000   1.0000   1.0000   1.0000   1.0000   1.0000   1.0000
     1.0000   1.0000   1.0000   1.0000   1.0000   1.0000   1.0000   1.0000
     1.0000   1.0000   0.0000   0.0000   0.0000   0.0000   0.0000   0.0000
     0.0000   0.0000   0.0000   0.0000   0.0000   0.0000   0.0000   0.0000
     0.0000   0.0000   0.0000   0.0000   0.0000   0.0000   0.0000   0.0000
     0.0000   0.0000   0.0000   0.0000

          k =-0.2500 0.1443-0.3121 (  1918 PWs)   bands (ev):

  -115.9195-115.9194 -69.5964 -69.5962 -69.5726 -69.5726 -69.5572 -69.5571
    -7.9695  -7.9694   2.9638   2.9638   3.4850   3.4850   3.4909   3.4909
     4.4434   4.4434   4.4652   4.4653   6.5213   6.5214   7.9420   7.9420
     8.3238   8.3238  13.9837  13.9837  18.5724  18.5724  20.6814  20.6814
    22.7095  22.7095  26.1163  26.1163  30.0840  30.0841  31.4847  31.4848
    33.5943  33.5944  35.7699  35.7699  37.3893  37.3893  39.3306  39.3306
    41.4953  41.4953  41.6182  41.6182

     occupation numbers 
     1.0000   1.0000   1.0000   1.0000   1.0000   1.0000   1.0000   1.0000
     1.0000   1.0000   1.0000   1.0000   1.0000   1.0000   1.0000   1.0000
     1.0000   1.0000   1.0000   1.0000   1.0000   1.0000   1.0000   1.0000
     1.0000   1.0000   0.0000   0.0000   0.0000   0.0000   0.0000   0.0000
     0.0000   0.0000   0.0000   0.0000   0.0000   0.0000   0.0000   0.0000
     0.0000   0.0000   0.0000   0.0000   0.0000   0.0000   0.0000   0.0000
     0.0000   0.0000   0.0000   0.0000

          k =-0.2500 0.1443-0.1561 (  1908 PWs)   bands (ev):

  -115.9195-115.9194 -69.5962 -69.5761 -69.5677 -69.5574 -69.5482 -69.5458
    -8.1713  -7.7660   2.9740   3.2090   3.4171   3.4826   3.5944   3.6531
     4.3320   4.3932   4.4922   4.6662   5.7736   6.8513   7.2998   7.9236
[...]
     1.0000   1.0000   1.0000   1.0000   1.0000   1.0000   1.0000   1.0000
     1.0000   1.0000   0.0000   0.0000   0.0000   0.0000   0.0000   0.0000
     0.0000   0.0000   0.0000   0.0000   0.0000   0.0000   0.0000   0.0000
     0.0000   0.0000   0.0000   0.0000   0.0000   0.0000   0.0000   0.0000
     0.0000   0.0000   0.0000   0.0000

          k =-0.2500-0.1443 0.0000 (  1916 PWs)   bands (ev):

  -115.9195-115.9194 -69.5960 -69.5858 -69.5840 -69.5746 -69.5555 -69.5441
    -8.2547  -7.6828   3.0227   3.3569   3.3835   3.5494   3.6104   3.9048
     4.1987   4.3522   4.5455   4.8104   4.9482   6.6975   7.4127   7.7265
     8.8160   8.8759  12.4787  16.1187  17.3858  18.7752  20.7347  22.3450
    22.5200  23.3921  24.7146  27.0408  27.4580  29.9888  32.4560  33.3449
    33.7029  33.7435  34.7976  36.0169  37.3089  37.6210  37.7327  38.1212
    39.6350  40.5138  41.3420  44.1323

     occupation numbers 
     1.0000   1.0000   1.0000   1.0000   1.0000   1.0000   1.0000   1.0000
     1.0000   1.0000   1.0000   1.0000   1.0000   1.0000   1.0000   1.0000
     1.0000   1.0000   1.0000   1.0000   1.0000   1.0000   1.0000   1.0000
     1.0000   1.0000   0.0000   0.0000   0.0000   0.0000   0.0000   0.0000
     0.0000   0.0000   0.0000   0.0000   0.0000   0.0000   0.0000   0.0000
     0.0000   0.0000   0.0000   0.0000   0.0000   0.0000   0.0000   0.0000
     0.0000   0.0000   0.0000   0.0000

          k =-0.2500-0.1443 0.1561 (  1908 PWs)   bands (ev):

  -115.9195-115.9194 -69.5963 -69.5763 -69.5676 -69.5574 -69.5481 -69.5458
    -8.1713  -7.7660   2.9736   3.2091   3.4179   3.4824   3.5950   3.6529
     4.3317   4.3933   4.4921   4.6665   5.7735   6.8508   7.2991   7.9237
     8.6511   8.7256  12.8638  15.3642  17.7857  18.9076  20.5686  21.7873
    22.5352  23.1152  24.5904  27.7077  27.9477  30.6852  31.5362  32.6567
    33.4650  34.1699  34.7656  36.6456  36.7304  37.3269  37.6479  39.6456
    39.8453  41.0624  41.9754  43.8498

     occupation numbers 
     1.0000   1.0000   1.0000   1.0000   1.0000   1.0000   1.0000   1.0000
     1.0000   1.0000   1.0000   1.0000   1.0000   1.0000   1.0000   1.0000
     1.0000   1.0000   1.0000   1.0000   1.0000   1.0000   1.0000   1.0000
     1.0000   1.0000   0.0000   0.0000   0.0000   0.0000   0.0000   0.0000
     0.0000   0.0000   0.0000   0.0000   0.0000   0.0000   0.0000   0.0000
     0.0000   0.0000   0.0000   0.0000   0.0000   0.0000   0.0000   0.0000
     0.0000   0.0000   0.0000   0.0000

          k =-0.2500-0.1443-0.3121 (  1918 PWs)   bands (ev):

  -115.9195-115.9194 -69.5964 -69.5962 -69.5726 -69.5725 -69.5572 -69.5572
    -7.9694  -7.9694   2.9636   2.9637   3.4847   3.4848   3.4916   3.4916
     4.4434   4.4434   4.4652   4.4653   6.5210   6.5210   7.9416   7.9417
     8.3238   8.3239  13.9835  13.9836  18.5731  18.5731  20.6816  20.6817
    22.7084  22.7084  26.1170  26.1170  30.0845  30.0845  31.4850  31.4850
    33.5940  33.5940  35.7697  35.7698  37.3883  37.3883  39.3306  39.3307
    41.4956  41.4957  41.6186  41.6187

     occupation numbers 
     1.0000   1.0000   1.0000   1.0000   1.0000   1.0000   1.0000   1.0000
     1.0000   1.0000   1.0000   1.0000   1.0000   1.0000   1.0000   1.0000
     1.0000   1.0000   1.0000   1.0000   1.0000   1.0000   1.0000   1.0000
     1.0000   1.0000   0.0000   0.0000   0.0000   0.0000   0.0000   0.0000
     0.0000   0.0000   0.0000   0.0000   0.0000   0.0000   0.0000   0.0000
     0.0000   0.0000   0.0000   0.0000   0.0000   0.0000   0.0000   0.0000
     0.0000   0.0000   0.0000   0.0000

          k =-0.2500-0.1443-0.1561 (  1908 PWs)   bands (ev):

  -115.9195-115.9194 -69.5963 -69.5763 -69.5676 -69.5574 -69.5481 -69.5458
    -8.1713  -7.7660   2.9736   3.2091   3.4179   3.4824   3.5950   3.6528
     4.3317   4.3933   4.4921   4.6665   5.7735   6.8508   7.2992   7.9237
     8.6511   8.7256  12.8638  15.3642  17.7857  18.9076  20.5685  21.7874
    22.5352  23.1152  24.5904  27.7077  27.9477  30.6852  31.5362  32.6567
    33.4650  34.1699  34.7656  36.6456  36.7304  37.3269  37.6479  39.6456
    39.8452  41.0624  41.9755  43.8498

     occupation numbers 
     1.0000   1.0000   1.0000   1.0000   1.0000   1.0000   1.0000   1.0000
     1.0000   1.0000   1.0000   1.0000   1.0000   1.0000   1.0000   1.0000
     1.0000   1.0000   1.0000   1.0000   1.0000   1.0000   1.0000   1.0000
     1.0000   1.0000   0.0000   0.0000   0.0000   0.0000   0.0000   0.0000
     0.0000   0.0000   0.0000   0.0000   0.0000   0.0000   0.0000   0.0000
     0.0000   0.0000   0.0000   0.0000   0.0000   0.0000   0.0000   0.0000
     0.0000   0.0000   0.0000   0.0000

          k =-0.2500 0.1443 0.0000 (  1916 PWs)   bands (ev):

  -115.9195-115.9194 -69.5961 -69.5858 -69.5840 -69.5747 -69.5555 -69.5441
    -8.2548  -7.6828   3.0231   3.3565   3.3826   3.5498   3.6099   3.9049
     4.1991   4.3521   4.5457   4.8106   4.9478   6.6982   7.4133   7.7263
     8.8164   8.8761  12.4787  16.1184  17.3850  18.7745  20.7341  22.3453
    22.5205  23.3935  24.7140  27.0413  27.4583  29.9888  32.4553  33.3449
    33.7031  33.7431  34.7951  36.0157  37.3084  37.6220  37.7344  38.1206
    39.6350  40.5149  41.3437  44.1318

     occupation numbers 
     1.0000   1.0000   1.0000   1.0000   1.0000   1.0000   1.0000   1.0000
     1.0000   1.0000   1.0000   1.0000   1.0000   1.0000   1.0000   1.0000
     1.0000   1.0000   1.0000   1.0000   1.0000   1.0000   1.0000   1.0000
     1.0000   1.0000   0.0000   0.0000   0.0000   0.0000   0.0000   0.0000
     0.0000   0.0000   0.0000   0.0000   0.0000   0.0000   0.0000   0.0000
     0.0000   0.0000   0.0000   0.0000   0.0000   0.0000   0.0000   0.0000
     0.0000   0.0000   0.0000   0.0000

          k =-0.2500 0.1443 0.1561 (  1908 PWs)   bands (ev):

  -115.9195-115.9194 -69.5962 -69.5761 -69.5677 -69.5574 -69.5482 -69.5458
    -8.1713  -7.7660   2.9740   3.2090   3.4171   3.4827   3.5944   3.6531
     4.3320   4.3932   4.4922   4.6662   5.7736   6.8513   7.2998   7.9236
     8.6514   8.7256  12.8639  15.3641  17.7851  18.9067  20.5685  21.7871
    22.5360  23.1165  24.5895  27.7083  27.9479  30.6844  31.5354  32.6557
    33.4655  34.1696  34.7654  36.6462  36.7308  37.3275  37.6479  39.6448
    39.8467  41.0618  41.9755  43.8499

     occupation numbers 
     1.0000   1.0000   1.0000   1.0000   1.0000   1.0000   1.0000   1.0000
     1.0000   1.0000   1.0000   1.0000   1.0000   1.0000   1.0000   1.0000
     1.0000   1.0000   1.0000   1.0000   1.0000   1.0000   1.0000   1.0000
     1.0000   1.0000   0.0000   0.0000   0.0000   0.0000   0.0000   0.0000
     0.0000   0.0000   0.0000   0.0000   0.0000   0.0000   0.0000   0.0000
     0.0000   0.0000   0.0000   0.0000   0.0000   0.0000   0.0000   0.0000
     0.0000   0.0000   0.0000   0.0000

          k =-0.2500 0.1443-0.3121 (  1918 PWs)   bands (ev):

  -115.9195-115.9194 -69.5964 -69.5962 -69.5726 -69.5726 -69.5572 -69.5571
    -7.9695  -7.9695   2.9638   2.9638   3.4850   3.4850   3.4909   3.4909
     4.4434   4.4434   4.4652   4.4653   6.5213   6.5214   7.9420   7.9420
     8.3238   8.3238  13.9837  13.9837  18.5724  18.5724  20.6814  20.6814
    22.7095  22.7095  26.1163  26.1163  30.0840  30.0841  31.4847  31.4848
    33.5943  33.5944  35.7699  35.7699  37.3893  37.3893  39.3306  39.3306
    41.4953  41.4953  41.6182  41.6182

     occupation numbers 
     1.0000   1.0000   1.0000   1.0000   1.0000   1.0000   1.0000   1.0000
     1.0000   1.0000   1.0000   1.0000   1.0000   1.0000   1.0000   1.0000
     1.0000   1.0000   1.0000   1.0000   1.0000   1.0000   1.0000   1.0000
     1.0000   1.0000   0.0000   0.0000   0.0000   0.0000   0.0000   0.0000
     0.0000   0.0000   0.0000   0.0000   0.0000   0.0000   0.0000   0.0000
     0.0000   0.0000   0.0000   0.0000   0.0000   0.0000   0.0000   0.0000
     0.0000   0.0000   0.0000   0.0000

          k =-0.2500 0.1443-0.1561 (  1908 PWs)   bands (ev):

  -115.9195-115.9194 -69.5962 -69.5761 -69.5677 -69.5574 -69.5482 -69.5458
    -8.1713  -7.7660   2.9740   3.2090   3.4171   3.4826   3.5944   3.6531
     4.3320   4.3932   4.4922   4.6662   5.7736   6.8513   7.2998   7.9236
     8.6514   8.7256  12.8639  15.3641  17.7851  18.9067  20.5685  21.7871
    22.5360  23.1165  24.5895  27.7084  27.9479  30.6845  31.5353  32.6557
    33.4655  34.1696  34.7654  36.6462  36.7308  37.3275  37.6479  39.6449
    39.8468  41.0618  41.9755  43.8499

     occupation numbers 
     1.0000   1.0000   1.0000   1.0000   1.0000   1.0000   1.0000   1.0000
     1.0000   1.0000   1.0000   1.0000   1.0000   1.0000   1.0000   1.0000
     1.0000   1.0000   1.0000   1.0000   1.0000   1.0000   1.0000   1.0000
     1.0000   1.0000   0.0000   0.0000   0.0000   0.0000   0.0000   0.0000
     0.0000   0.0000   0.0000   0.0000   0.0000   0.0000   0.0000   0.0000
     0.0000   0.0000   0.0000   0.0000   0.0000   0.0000   0.0000   0.0000
     0.0000   0.0000   0.0000   0.0000

          k =-0.2500-0.7217 0.0000 (  1931 PWs)   bands (ev):

  -115.9194-115.9194 -69.6075 -69.5855 -69.5839 -69.5797 -69.5776 -69.5701
    -7.8640  -7.6120   3.2052   3.3578   3.6331   3.6431   3.9825   4.1336
     4.2088   4.3185   4.5621   4.8607   5.1458   5.8794   6.2952   6.5064
     7.8922   8.0332  15.0656  16.9187  17.6723  17.6757  20.2300  20.4746
    20.7714  23.5922  24.3424  27.8669  31.0856  31.6094  32.1153  32.2152
    33.6331  35.5649  35.7613  36.2461  36.4395  37.5507  38.3445  40.9582
    41.5805  44.0035  44.5656  45.6545

     occupation numbers 
     1.0000   1.0000   1.0000   1.0000   1.0000   1.0000   1.0000   1.0000
     1.0000   1.0000   1.0000   1.0000   1.0000   1.0000   1.0000   1.0000
     1.0000   1.0000   1.0000   1.0000   1.0000   1.0000   1.0000   1.0000
     1.0000   1.0000   0.0000   0.0000   0.0000   0.0000   0.0000   0.0000
     0.0000   0.0000   0.0000   0.0000   0.0000   0.0000   0.0000   0.0000
     0.0000   0.0000   0.0000   0.0000   0.0000   0.0000   0.0000   0.0000
     0.0000   0.0000   0.0000   0.0000

          k =-0.2500-0.7217 0.1561 (  1924 PWs)   bands (ev):

  -115.9194-115.9193 -69.6040 -69.5865 -69.5785 -69.5731 -69.5625 -69.5572
    -7.8228  -7.6433   3.2039   3.2215   3.5758   3.6028   3.8642   3.8863
     4.2924   4.4574   4.5894   4.8131   5.3398   5.8739   6.4119   7.0675
     7.6728   8.1806  15.1391  16.5242  17.7690  17.7961  19.3958  19.7816
    21.7775  24.4350  24.6599  27.0274  30.0041  30.1627  32.1875  33.0027
    34.3681  34.5828  36.3758  36.7195  38.2928  38.3625  39.0201  41.7011
    41.7820  43.3901  43.7980  45.3291

     occupation numbers 
     1.0000   1.0000   1.0000   1.0000   1.0000   1.0000   1.0000   1.0000
     1.0000   1.0000   1.0000   1.0000   1.0000   1.0000   1.0000   1.0000
     1.0000   1.0000   1.0000   1.0000   1.0000   1.0000   1.0000   1.0000
     1.0000   1.0000   0.0000   0.0000   0.0000   0.0000   0.0000   0.0000
     0.0000   0.0000   0.0000   0.0000   0.0000   0.0000   0.0000   0.0000
     0.0000   0.0000   0.0000   0.0000   0.0000   0.0000   0.0000   0.0000
     0.0000   0.0000   0.0000   0.0000

          k =-0.2500-0.7217-0.3121 (  1934 PWs)   bands (ev):

  -115.9194-115.9194 -69.6018 -69.6018 -69.5889 -69.5888 -69.5759 -69.5758
    -7.7285  -7.7285   3.1205   3.1205   3.5276   3.5277   3.7614   3.7615
     4.3737   4.3738   4.6705   4.6706   5.6018   5.6018   6.9716   6.9716
     8.0034   8.0034  15.6634  15.6635  17.9285  17.9285  19.0080  19.0081
    23.5016  23.5017  25.9811  25.9812  29.2061  29.2062  32.5786  32.5787
    34.5646  34.5647  36.9295  36.9295  39.8317  39.8317  40.7954  40.7954
    42.3663  42.3663  43.6559  43.6559

     occupation numbers 
     1.0000   1.0000   1.0000   1.0000   1.0000   1.0000   1.0000   1.0000
     1.0000   1.0000   1.0000   1.0000   1.0000   1.0000   1.0000   1.0000
     1.0000   1.0000   1.0000   1.0000   1.0000   1.0000   1.0000   1.0000
     1.0000   1.0000   0.0000   0.0000   0.0000   0.0000   0.0000   0.0000
     0.0000   0.0000   0.0000   0.0000   0.0000   0.0000   0.0000   0.0000
     0.0000   0.0000   0.0000   0.0000   0.0000   0.0000   0.0000   0.0000
     0.0000   0.0000   0.0000   0.0000

          k =-0.2500-0.7217-0.1561 (  1924 PWs)   bands (ev):

  -115.9194-115.9193 -69.6040 -69.5865 -69.5785 -69.5731 -69.5625 -69.5572
    -7.8228  -7.6433   3.2039   3.2215   3.5758   3.6028   3.8642   3.8863
     4.2924   4.4574   4.5894   4.8131   5.3398   5.8739   6.4119   7.0675
     7.6728   8.1806  15.1391  16.5242  17.7690  17.7961  19.3958  19.7816
    21.7775  24.4350  24.6599  27.0274  30.0041  30.1627  32.1875  33.0027
    34.3681  34.5828  36.3758  36.7195  38.2928  38.3625  39.0201  41.7011
    41.7820  43.3901  43.7980  45.3291

     occupation numbers 
     1.0000   1.0000   1.0000   1.0000   1.0000   1.0000   1.0000   1.0000
     1.0000   1.0000   1.0000   1.0000   1.0000   1.0000   1.0000   1.0000
     1.0000   1.0000   1.0000   1.0000   1.0000   1.0000   1.0000   1.0000
     1.0000   1.0000   0.0000   0.0000   0.0000   0.0000   0.0000   0.0000
     0.0000   0.0000   0.0000   0.0000   0.0000   0.0000   0.0000   0.0000
     0.0000   0.0000   0.0000   0.0000   0.0000   0.0000   0.0000   0.0000
     0.0000   0.0000   0.0000   0.0000

          k =-0.2500-0.4330 0.0000 (  1931 PWs)   bands (ev):

  -115.9194-115.9194 -69.6075 -69.5855 -69.5839 -69.5797 -69.5776 -69.5703
    -7.8639  -7.6120   3.2052   3.3577   3.6332   3.6438   3.9828   4.1341
     4.2088   4.3187   4.5620   4.8606   5.1445   5.8795   6.2945   6.5062
     7.8925   8.0327  15.0657  16.9197  17.6726  17.6754  20.2295  20.4751
    20.7720  23.5895  24.3441  27.8655  31.0854  31.6103  32.1168  32.2162
    33.6331  35.5641  35.7612  36.2447  36.4416  37.5524  38.3416  40.9588
    41.5800  44.0041  44.5643  45.6540

     occupation numbers 
     1.0000   1.0000   1.0000   1.0000   1.0000   1.0000   1.0000   1.0000
     1.0000   1.0000   1.0000   1.0000   1.0000   1.0000   1.0000   1.0000
     1.0000   1.0000   1.0000   1.0000   1.0000   1.0000   1.0000   1.0000
     1.0000   1.0000   0.0000   0.0000   0.0000   0.0000   0.0000   0.0000
     0.0000   0.0000   0.0000   0.0000   0.0000   0.0000   0.0000   0.0000
     0.0000   0.0000   0.0000   0.0000   0.0000   0.0000   0.0000   0.0000
     0.0000   0.0000   0.0000   0.0000

          k =-0.2500-0.4330 0.1561 (  1924 PWs)   bands (ev):

  -115.9194-115.9193 -69.6039 -69.5865 -69.5785 -69.5731 -69.5624 -69.5573
    -7.8227  -7.6433   3.2038   3.2214   3.5764   3.6027   3.8647   3.8869
     4.2922   4.4572   4.5893   4.8130   5.3389   5.8733   6.4121   7.0672
     7.6734   8.1802  15.1392  16.5250  17.7685  17.7963  19.3947  19.7823
    21.7789  24.4328  24.6605  27.0281  30.0039  30.1626  32.1882  33.0041
    34.3667  34.5826  36.3767  36.7187  38.2935  38.3610  39.0210  41.7007
    41.7825  43.3905  43.7986  45.3296

     occupation numbers 
     1.0000   1.0000   1.0000   1.0000   1.0000   1.0000   1.0000   1.0000
     1.0000   1.0000   1.0000   1.0000   1.0000   1.0000   1.0000   1.0000
     1.0000   1.0000   1.0000   1.0000   1.0000   1.0000   1.0000   1.0000
     1.0000   1.0000   0.0000   0.0000   0.0000   0.0000   0.0000   0.0000
     0.0000   0.0000   0.0000   0.0000   0.0000   0.0000   0.0000   0.0000
     0.0000   0.0000   0.0000   0.0000   0.0000   0.0000   0.0000   0.0000
     0.0000   0.0000   0.0000   0.0000

          k =-0.2500-0.4330-0.3121 (  1934 PWs)   bands (ev):

  -115.9194-115.9194 -69.6018 -69.6018 -69.5890 -69.5888 -69.5758 -69.5757
    -7.7285  -7.7285   3.1204   3.1204   3.5278   3.5278   3.7622   3.7622
     4.3735   4.3735   4.6704   4.6705   5.6010   5.6010   6.9718   6.9718
     8.0033   8.0034  15.6637  15.6638  17.9278  17.9279  19.0083  19.0084
    23.5026  23.5027  25.9804  25.9805  29.2062  29.2062  32.5796  32.5796
    34.5638  34.5638  36.9287  36.9288  39.8325  39.8326  40.7955  40.7956
    42.3659  42.3659  43.6563  43.6563

     occupation numbers 
     1.0000   1.0000   1.0000   1.0000   1.0000   1.0000   1.0000   1.0000
     1.0000   1.0000   1.0000   1.0000   1.0000   1.0000   1.0000   1.0000
     1.0000   1.0000   1.0000   1.0000   1.0000   1.0000   1.0000   1.0000
     1.0000   1.0000   0.0000   0.0000   0.0000   0.0000   0.0000   0.0000
     0.0000   0.0000   0.0000   0.0000   0.0000   0.0000   0.0000   0.0000
     0.0000   0.0000   0.0000   0.0000   0.0000   0.0000   0.0000   0.0000
     0.0000   0.0000   0.0000   0.0000

          k =-0.2500-0.4330-0.1561 (  1924 PWs)   bands (ev):

  -115.9194-115.9193 -69.6039 -69.5865 -69.5785 -69.5731 -69.5624 -69.5573
    -7.8227  -7.6433   3.2038   3.2214   3.5764   3.6027   3.8647   3.8869
     4.2922   4.4572   4.5893   4.8130   5.3389   5.8733   6.4121   7.0672
     7.6734   8.1802  15.1392  16.5250  17.7685  17.7963  19.3947  19.7823
    21.7789  24.4328  24.6605  27.0281  30.0039  30.1626  32.1882  33.0041
    34.3667  34.5826  36.3767  36.7187  38.2935  38.3610  39.0210  41.7007
    41.7825  43.3905  43.7986  45.3296

     occupation numbers 
     1.0000   1.0000   1.0000   1.0000   1.0000   1.0000   1.0000   1.0000
     1.0000   1.0000   1.0000   1.0000   1.0000   1.0000   1.0000   1.0000
     1.0000   1.0000   1.0000   1.0000   1.0000   1.0000   1.0000   1.0000
     1.0000   1.0000   0.0000   0.0000   0.0000   0.0000   0.0000   0.0000
     0.0000   0.0000   0.0000   0.0000   0.0000   0.0000   0.0000   0.0000
     0.0000   0.0000   0.0000   0.0000   0.0000   0.0000   0.0000   0.0000
     0.0000   0.0000   0.0000   0.0000

     highest occupied, lowest unoccupied level (ev):     9.2874    9.9768

     Writing all to output data dir /scratch/elinscott/materials_cloud_archive/zno/TMP/kc.save/
 
     init_run     :      0.03s CPU      0.05s WALL (       1 calls)
     electrons    :      6.58s CPU      6.80s WALL (       1 calls)

     Called by init_run:
     wfcinit      :      0.00s CPU      0.00s WALL (       1 calls)
     wfcinit:atom :      0.00s CPU      0.00s WALL (      32 calls)
     wfcinit:wfcr :      0.23s CPU      0.25s WALL (      32 calls)
     potinit      :      0.00s CPU      0.00s WALL (       1 calls)
     hinit0       :      0.02s CPU      0.04s WALL (       1 calls)

     Called by electrons:
     c_bands      :      6.58s CPU      6.80s WALL (       1 calls)
     v_of_rho     :      0.00s CPU      0.00s WALL (       1 calls)
     v_h          :      0.00s CPU      0.00s WALL (       1 calls)
     v_xc         :      0.00s CPU      0.00s WALL (       1 calls)

     Called by c_bands:
     init_us_2    :      0.00s CPU      0.01s WALL (      32 calls)
     init_us_2:cp :      0.00s CPU      0.00s WALL (      32 calls)
     cegterg      :      5.43s CPU      5.61s WALL (      62 calls)

     Called by sum_band:

     Called by *egterg:
     cdiaghg      :      2.17s CPU      2.21s WALL (     858 calls)
     cegterg:over :      0.29s CPU      0.31s WALL (     826 calls)
     cegterg:upda :      0.15s CPU      0.15s WALL (     826 calls)
     cegterg:last :      0.25s CPU      0.26s WALL (     409 calls)
     h_psi        :      2.64s CPU      2.78s WALL (     920 calls)
     g_psi        :      0.02s CPU      0.02s WALL (     826 calls)

     Called by h_psi:
     h_psi:calbec :      0.13s CPU      0.13s WALL (     920 calls)
     vloc_psi     :      2.39s CPU      2.51s WALL (     920 calls)
     add_vuspsi   :      0.10s CPU      0.11s WALL (     920 calls)

     General routines
     calbec       :      0.13s CPU      0.13s WALL (     920 calls)
     fft          :      0.00s CPU      0.01s WALL (       5 calls)
     fftw         :      2.11s CPU      2.22s WALL (   45956 calls)
     davcio       :      0.01s CPU      0.01s WALL (      64 calls)
 
     Parallel routines
 
     PWSCF        :      6.76s CPU      7.07s WALL

 
   This run was terminated on:  12: 4: 3  12Dec2022            

=------------------------------------------------------------------------------=
   JOB DONE.
=------------------------------------------------------------------------------=
