
     Program PWSCF v.7.1 starts on 12Dec2022 at 12: 3:54 

     This program is part of the open-source Quantum ESPRESSO suite
     for quantum simulation of materials; please cite
         "P. Giannozzi et al., J. Phys.:Condens. Matter 21 395502 (2009);
         "P. Giannozzi et al., J. Phys.:Condens. Matter 29 465901 (2017);
         "P. Giannozzi et al., J. Chem. Phys. 152 154105 (2020);
          URL http://www.quantum-espresso.org", 
     in publications or presentations arising from this work. More details at
     http://www.quantum-espresso.org/quote

     Parallel version (MPI), running on    16 processors

     MPI processes distributed on     1 nodes
     72674 MiB available memory on the printing compute node when the environment starts
 
     Reading input from scf.pwi
Warning: card &CELL ignored
Warning: card / ignored

     Current dimensions of program PWSCF are:
     Max number of different atomic species (ntypx) = 10
     Max number of k-points (npk) =  40000
     Max angular momentum in pseudopotentials (lmaxx) =  4
 
     K-points division:     npool     =       4
     R & G space division:  proc/nbgrp/npool/nimage =       4
     Subspace diagonalization in iterative solution of the eigenvalue problem:
     a serial algorithm will be used

 
     Parallelization info
     --------------------
     sticks:   dense  smooth     PW     G-vecs:    dense   smooth      PW
     Min         127     127     37                 3819     3819     627
     Max         128     128     38                 3826     3826     634
     Sum         511     511    151                15291    15291    2527
 
     Using Slab Decomposition
 


     bravais-lattice index     =            4
     lattice parameter (alat)  =       6.1406  a.u.
     unit-cell volume          =     321.2403 (a.u.)^3
     number of atoms/cell      =            4
     number of atomic types    =            2
     number of electrons       =        52.00 (up:  26.00, down:  26.00)
     number of Kohn-Sham states=           26
     kinetic-energy cutoff     =      50.0000  Ry
     charge density cutoff     =     200.0000  Ry
     scf convergence threshold =      1.0E-07
     mixing beta               =       0.7000
     number of iterations used =            8  plain     mixing
     Exchange-correlation= SLA  PW   NOGX NOGC
                           (   1   4   0   0   0   0   0)

     celldm(1)=   6.140570  celldm(2)=   0.000000  celldm(3)=   1.602040
     celldm(4)=   0.000000  celldm(5)=   0.000000  celldm(6)=   0.000000

     crystal axes: (cart. coord. in units of alat)
               a(1) = (   1.000000   0.000000   0.000000 )  
               a(2) = (  -0.500000   0.866025   0.000000 )  
               a(3) = (   0.000000   0.000000   1.602040 )  

     reciprocal axes: (cart. coord. in units 2 pi/alat)
               b(1) = (  1.000000  0.577350  0.000000 )  
               b(2) = (  0.000000  1.154701  0.000000 )  
               b(3) = (  0.000000  0.000000  0.624204 )  


     PseudoPot. # 1 for Zn read from file:
     /home/elinscott/code/koopmans/src/koopmans/pseudopotentials/pseudo_dojo_standard_v0.4.1/lda/Zn.upf
     MD5 check sum: 492e12d15cacde48a98384ec5dd6fb31
     Pseudo is Norm-conserving + core correction, Zval = 20.0
     Generated using ONCVPSP code by D. R. Hamann
     Using radial grid of 1296 points,  6 beta functions with: 
                l(1) =   0
                l(2) =   0
                l(3) =   1
                l(4) =   1
                l(5) =   2
                l(6) =   2

     PseudoPot. # 2 for O  read from file:
     /home/elinscott/code/koopmans/src/koopmans/pseudopotentials/pseudo_dojo_standard_v0.4.1/lda/O.upf
     MD5 check sum: 86ed389b6a5065e60c3f64c68a612de9
     Pseudo is Norm-conserving + core correction, Zval =  6.0
     Generated using ONCVPSP code by D. R. Hamann
     Using radial grid of  926 points,  5 beta functions with: 
                l(1) =   0
                l(2) =   0
                l(3) =   1
                l(4) =   1
                l(5) =   2

     atomic species   valence    mass     pseudopotential
        Zn            20.00    65.38000     Zn( 1.00)
        O              6.00    15.99900     O ( 1.00)

     Starting magnetic structure 
     atomic species   magnetization
        Zn           0.000
        O            0.000

      4 Sym. Ops. (no inversion) found ( 2 have fractional translation)


                                    s                        frac. trans.

      isym =  1     identity                                     

 cryst.   s( 1) = (     1          0          0      )
                  (     0          1          0      )
                  (     0          0          1      )

 cart.    s( 1) = (  1.0000000  0.0000000  0.0000000 )
                  (  0.0000000  1.0000000  0.0000000 )
                  (  0.0000000  0.0000000  1.0000000 )


      isym =  2     180 deg rotation - cart. axis [0,0,1]        

 cryst.   s( 2) = (    -1          0          0      )    f =(  0.0000000 )
                  (     0         -1          0      )       (  0.0000000 )
                  (     0          0          1      )       (  0.5000000 )

 cart.    s( 2) = ( -1.0000000  0.0000000  0.0000000 )    f =(  0.0000000 )
                  (  0.0000000 -1.0000000  0.0000000 )       (  0.0000000 )
                  (  0.0000000  0.0000000  1.0000000 )       (  0.8010200 )


      isym =  3     inv. 180 deg rotation - cryst. axis [1,-1,0] 

 cryst.   s( 3) = (     0          1          0      )    f =(  0.0000000 )
                  (     1          0          0      )       (  0.0000000 )
                  (     0          0          1      )       (  0.5000000 )

 cart.    s( 3) = ( -0.5000000  0.8660254  0.0000000 )    f =(  0.0000000 )
                  (  0.8660254  0.5000000  0.0000000 )       (  0.0000000 )
                  (  0.0000000  0.0000000  1.0000000 )       (  0.8010200 )


      isym =  4     inv. 180 deg rotation - cryst. axis [1,1,0]  

 cryst.   s( 4) = (     0         -1          0      )
                  (    -1          0          0      )
                  (     0          0          1      )

 cart.    s( 4) = (  0.5000000 -0.8660254  0.0000000 )
                  ( -0.8660254 -0.5000000  0.0000000 )
                  (  0.0000000  0.0000000  1.0000000 )


     point group C_2v (mm2) 
     there are  4 classes
     the character table:

       E     C2    s_v   s_v' 
A_1    1.00  1.00  1.00  1.00
A_2    1.00  1.00 -1.00 -1.00
B_1    1.00 -1.00  1.00 -1.00
B_2    1.00 -1.00 -1.00  1.00

     the symmetry operations in each class and the name of the first element:

     E        1
          identity                                               
     C2       2
          180 deg rotation - cart. axis [0,0,1]                  
     s_v      3
          inv. 180 deg rotation - cryst. axis [1,-1,0]           
     s_v'     4
          inv. 180 deg rotation - cryst. axis [1,1,0]            

   Cartesian axes

     site n.     atom                  positions (alat units)
         1           Zn  tau(   1) = (  -0.0000500   0.5773791   0.8010200  )
         2           Zn  tau(   2) = (   0.5000500   0.2886463   0.0000000  )
         3           O   tau(   3) = (  -0.0000500   0.5773791   0.1878392  )
         4           O   tau(   4) = (   0.5000500   0.2886463   0.9888592  )

   Crystallographic axes

     site n.     atom                  positions (cryst. coord.)
         1           Zn  tau(   1) = (  0.3333000  0.6667000  0.5000000  )
         2           Zn  tau(   2) = (  0.6667000  0.3333000  0.0000000  )
         3           O   tau(   3) = (  0.3333000  0.6667000  0.1172500  )
         4           O   tau(   4) = (  0.6667000  0.3333000  0.6172500  )

     number of k points=    21
                       cart. coord. in units 2pi/alat
        k(    1) = (   0.0000000   0.0000000   0.0000000), wk =   0.0156250
        k(    2) = (   0.0000000   0.0000000   0.1560510), wk =   0.0312500
        k(    3) = (   0.0000000   0.0000000  -0.3121021), wk =   0.0156250
        k(    4) = (   0.0000000   0.2886751   0.0000000), wk =   0.0625000
        k(    5) = (   0.0000000   0.2886751   0.1560510), wk =   0.1250000
        k(    6) = (   0.0000000   0.2886751  -0.3121021), wk =   0.0625000
        k(    7) = (   0.0000000  -0.5773503   0.0000000), wk =   0.0312500
        k(    8) = (   0.0000000  -0.5773503   0.1560510), wk =   0.0625000
        k(    9) = (   0.0000000  -0.5773503  -0.3121021), wk =   0.0312500
        k(   10) = (   0.2500000   0.4330127   0.0000000), wk =   0.0312500
        k(   11) = (   0.2500000   0.4330127   0.1560510), wk =   0.0625000
        k(   12) = (   0.2500000   0.4330127  -0.3121021), wk =   0.0312500
        k(   13) = (  -0.2500000   0.1443376   0.0000000), wk =   0.0312500
        k(   14) = (  -0.2500000   0.1443376   0.1560510), wk =   0.0625000
        k(   15) = (  -0.2500000   0.1443376  -0.3121021), wk =   0.0312500
        k(   16) = (   0.5000000  -0.2886751   0.0000000), wk =   0.0156250
        k(   17) = (   0.5000000  -0.2886751   0.1560510), wk =   0.0312500
        k(   18) = (   0.5000000  -0.2886751  -0.3121021), wk =   0.0156250
        k(   19) = (  -0.2500000   0.4330127   0.0000000), wk =   0.0625000
        k(   20) = (  -0.2500000   0.4330127   0.1560510), wk =   0.1250000
        k(   21) = (  -0.2500000   0.4330127  -0.3121021), wk =   0.0625000

                       cryst. coord.
        k(    1) = (   0.0000000   0.0000000   0.0000000), wk =   0.0156250
        k(    2) = (   0.0000000   0.0000000   0.2500000), wk =   0.0312500
        k(    3) = (   0.0000000   0.0000000  -0.5000000), wk =   0.0156250
        k(    4) = (   0.0000000   0.2500000   0.0000000), wk =   0.0625000
        k(    5) = (   0.0000000   0.2500000   0.2500000), wk =   0.1250000
        k(    6) = (   0.0000000   0.2500000  -0.5000000), wk =   0.0625000
        k(    7) = (   0.0000000  -0.5000000   0.0000000), wk =   0.0312500
        k(    8) = (   0.0000000  -0.5000000   0.2500000), wk =   0.0625000
        k(    9) = (   0.0000000  -0.5000000  -0.5000000), wk =   0.0312500
        k(   10) = (   0.2500000   0.2500000   0.0000000), wk =   0.0312500
        k(   11) = (   0.2500000   0.2500000   0.2500000), wk =   0.0625000
        k(   12) = (   0.2500000   0.2500000  -0.5000000), wk =   0.0312500
        k(   13) = (  -0.2500000   0.2500000   0.0000000), wk =   0.0312500
        k(   14) = (  -0.2500000   0.2500000   0.2500000), wk =   0.0625000
        k(   15) = (  -0.2500000   0.2500000  -0.5000000), wk =   0.0312500
        k(   16) = (   0.5000000  -0.5000000   0.0000000), wk =   0.0156250
        k(   17) = (   0.5000000  -0.5000000   0.2500000), wk =   0.0312500
        k(   18) = (   0.5000000  -0.5000000  -0.5000000), wk =   0.0156250
        k(   19) = (  -0.2500000   0.5000000   0.0000000), wk =   0.0625000
        k(   20) = (  -0.2500000   0.5000000   0.2500000), wk =   0.1250000
        k(   21) = (  -0.2500000   0.5000000  -0.5000000), wk =   0.0625000

     Dense  grid:    15291 G-vectors     FFT dimensions: (  27,  27,  48)

     Dynamical RAM for                 wfc:       0.19 MB

     Dynamical RAM for     wfc (w. buffer):       2.28 MB

     Dynamical RAM for           str. fact:       0.12 MB

     Dynamical RAM for           local pot:       0.00 MB

     Dynamical RAM for          nlocal pot:       0.45 MB

     Dynamical RAM for                qrad:       2.27 MB

     Dynamical RAM for          rho,v,vnew:       0.75 MB

     Dynamical RAM for               rhoin:       0.25 MB

     Dynamical RAM for            rho*nmix:       1.87 MB

     Dynamical RAM for           G-vectors:       0.25 MB

     Dynamical RAM for          h,s,v(r/c):       0.12 MB

     Dynamical RAM for          <psi|beta>:       0.02 MB

     Dynamical RAM for                 psi:       0.38 MB

     Dynamical RAM for                hpsi:       0.38 MB

     Dynamical RAM for      wfcinit/wfcrot:       0.43 MB

     Estimated static dynamical RAM per process >       6.95 MB

     Estimated max dynamical RAM per process >       9.72 MB

     Estimated total dynamical RAM >     133.16 MB

     Check: negative core charge=   -0.000270
     Generating pointlists ...
     new r_m :   0.2504 (alat units)  1.5377 (a.u.) for type    1
     new r_m :   0.2504 (alat units)  1.5377 (a.u.) for type    2

     Initial potential from superposition of free atoms

     starting charge      51.9998, renormalised to      52.0000
     Starting wfcs are   28 randomized atomic wfcs

     total cpu time spent up to now is        0.2 secs

     Self-consistent Calculation

     iteration #  1     ecut=    50.00 Ry     beta= 0.70
     Davidson diagonalization with overlap

---- Real-time Memory Report at c_bands before calling an iterative solver
           101 MiB given to the printing process from OS
             0 MiB allocation reported by mallinfo(arena+hblkhd)
         72413 MiB available memory on the node where the printing process lives
------------------
     ethr =  1.00E-02,  avg # of iterations =  2.0

     total cpu time spent up to now is        0.3 secs

     total energy              =    -900.04471938 Ry
     estimated scf accuracy    <       0.94476142 Ry

     total magnetization       =     0.00 Bohr mag/cell
     absolute magnetization    =     0.00 Bohr mag/cell

     iteration #  2     ecut=    50.00 Ry     beta= 0.70
     Davidson diagonalization with overlap

---- Real-time Memory Report at c_bands before calling an iterative solver
           106 MiB given to the printing process from OS
             0 MiB allocation reported by mallinfo(arena+hblkhd)
         72380 MiB available memory on the node where the printing process lives
------------------
     ethr =  1.82E-03,  avg # of iterations =  3.0

     total cpu time spent up to now is        0.5 secs

     total energy              =    -900.27351657 Ry
     estimated scf accuracy    <       1.34503120 Ry

     total magnetization       =    -0.00 Bohr mag/cell
     absolute magnetization    =     0.00 Bohr mag/cell

     iteration #  3     ecut=    50.00 Ry     beta= 0.70
     Davidson diagonalization with overlap

---- Real-time Memory Report at c_bands before calling an iterative solver
           108 MiB given to the printing process from OS
             0 MiB allocation reported by mallinfo(arena+hblkhd)
         72375 MiB available memory on the node where the printing process lives
------------------
     ethr =  1.82E-03,  avg # of iterations =  2.3

     total cpu time spent up to now is        0.7 secs

     total energy              =    -900.51441648 Ry
     estimated scf accuracy    <       0.00898563 Ry

     total magnetization       =     0.00 Bohr mag/cell
     absolute magnetization    =     0.00 Bohr mag/cell

     iteration #  4     ecut=    50.00 Ry     beta= 0.70
     Davidson diagonalization with overlap

---- Real-time Memory Report at c_bands before calling an iterative solver
           109 MiB given to the printing process from OS
             0 MiB allocation reported by mallinfo(arena+hblkhd)
         72373 MiB available memory on the node where the printing process lives
------------------
     ethr =  1.73E-05,  avg # of iterations =  4.2

     total cpu time spent up to now is        0.9 secs

     total energy              =    -900.52024741 Ry
     estimated scf accuracy    <       0.00874910 Ry

     total magnetization       =     0.00 Bohr mag/cell
     absolute magnetization    =     0.00 Bohr mag/cell

     iteration #  5     ecut=    50.00 Ry     beta= 0.70
     Davidson diagonalization with overlap

---- Real-time Memory Report at c_bands before calling an iterative solver
           110 MiB given to the printing process from OS
             0 MiB allocation reported by mallinfo(arena+hblkhd)
         72367 MiB available memory on the node where the printing process lives
------------------
     ethr =  1.68E-05,  avg # of iterations =  2.0

     total cpu time spent up to now is        1.0 secs

     total energy              =    -900.52138109 Ry
     estimated scf accuracy    <       0.00027963 Ry

     total magnetization       =    -0.00 Bohr mag/cell
     absolute magnetization    =     0.00 Bohr mag/cell

     iteration #  6     ecut=    50.00 Ry     beta= 0.70
     Davidson diagonalization with overlap

---- Real-time Memory Report at c_bands before calling an iterative solver
           111 MiB given to the printing process from OS
             0 MiB allocation reported by mallinfo(arena+hblkhd)
         72365 MiB available memory on the node where the printing process lives
------------------
     ethr =  5.38E-07,  avg # of iterations =  3.2

     total cpu time spent up to now is        1.2 secs

     total energy              =    -900.52150810 Ry
     estimated scf accuracy    <       0.00005219 Ry

     total magnetization       =     0.00 Bohr mag/cell
     absolute magnetization    =     0.00 Bohr mag/cell

     iteration #  7     ecut=    50.00 Ry     beta= 0.70
     Davidson diagonalization with overlap

---- Real-time Memory Report at c_bands before calling an iterative solver
           112 MiB given to the printing process from OS
             0 MiB allocation reported by mallinfo(arena+hblkhd)
         72364 MiB available memory on the node where the printing process lives
------------------
     ethr =  1.00E-07,  avg # of iterations =  2.1

     total cpu time spent up to now is        1.3 secs

     total energy              =    -900.52150594 Ry
     estimated scf accuracy    <       0.00001203 Ry

     total magnetization       =     0.00 Bohr mag/cell
     absolute magnetization    =     0.00 Bohr mag/cell

     iteration #  8     ecut=    50.00 Ry     beta= 0.70
     Davidson diagonalization with overlap

---- Real-time Memory Report at c_bands before calling an iterative solver
           112 MiB given to the printing process from OS
             0 MiB allocation reported by mallinfo(arena+hblkhd)
         72362 MiB available memory on the node where the printing process lives
------------------
     ethr =  2.31E-08,  avg # of iterations =  2.0
 
     Magnetic moment per site  (integrated on atomic sphere of radius R)
     atom   1 (R=0.250)  charge= 17.3912  magn= -0.0000
     atom   2 (R=0.250)  charge= 17.3912  magn= -0.0000
     atom   3 (R=0.250)  charge=  5.3920  magn= -0.0000
     atom   4 (R=0.250)  charge=  5.3920  magn= -0.0000

     total cpu time spent up to now is        1.5 secs

     End of self-consistent calculation

 ------ SPIN UP ------------


          k = 0.0000 0.0000 0.0000 (  1907 PWs)   bands (ev):

  -115.9194-115.9193 -69.5866 -69.5865 -69.5840 -69.5547 -69.5546 -69.5318
    -8.5722  -7.8079   3.2161   3.2170   3.3992   3.4125   3.4129   3.6189
     4.3157   4.3160   4.4232   4.4234   4.9918   8.4787   8.4799   9.2670
     9.2670   9.2870

     occupation numbers 
     1.0000   1.0000   1.0000   1.0000   1.0000   1.0000   1.0000   1.0000
     1.0000   1.0000   1.0000   1.0000   1.0000   1.0000   1.0000   1.0000
     1.0000   1.0000   1.0000   1.0000   1.0000   1.0000   1.0000   1.0000
     1.0000   1.0000

          k = 0.0000 0.0000 0.1561 (  1882 PWs)   bands (ev):

  -115.9194-115.9192 -69.5868 -69.5657 -69.5299 -69.5299 -69.5264 -69.5263
    -8.4661  -7.9244   3.2283   3.2902   3.2910   3.3182   3.4197   3.4202
     4.3771   4.3773   4.5413   4.5415   5.6502   8.1813   8.6577   8.6588
     9.2032   9.2035

     occupation numbers 
     1.0000   1.0000   1.0000   1.0000   1.0000   1.0000   1.0000   1.0000
     1.0000   1.0000   1.0000   1.0000   1.0000   1.0000   1.0000   1.0000
     1.0000   1.0000   1.0000   1.0000   1.0000   1.0000   1.0000   1.0000
     1.0000   1.0000

          k = 0.0000 0.0000-0.3121 (  1894 PWs)   bands (ev):

  -115.9193-115.9193 -69.6035 -69.6035 -69.5345 -69.5345 -69.5344 -69.5344
    -8.2012  -8.2012   3.1075   3.1075   3.3416   3.3416   3.3423   3.3423
     4.4256   4.4256   4.4257   4.4257   6.9175   6.9175   8.9243   8.9243
     8.9249   8.9249

     occupation numbers 
     1.0000   1.0000   1.0000   1.0000   1.0000   1.0000   1.0000   1.0000
     1.0000   1.0000   1.0000   1.0000   1.0000   1.0000   1.0000   1.0000
     1.0000   1.0000   1.0000   1.0000   1.0000   1.0000   1.0000   1.0000
     1.0000   1.0000

          k = 0.0000 0.2887 0.0000 (  1916 PWs)   bands (ev):

  -115.9194-115.9192 -69.5959 -69.5857 -69.5838 -69.5744 -69.5553 -69.5439
    -8.2552  -7.6834   3.0226   3.3569   3.3835   3.5494   3.6105   3.9047
     4.1989   4.3523   4.5457   4.8105   4.9481   6.6973   7.4125   7.7262
     8.8156   8.8755

     occupation numbers 
     1.0000   1.0000   1.0000   1.0000   1.0000   1.0000   1.0000   1.0000
     1.0000   1.0000   1.0000   1.0000   1.0000   1.0000   1.0000   1.0000
     1.0000   1.0000   1.0000   1.0000   1.0000   1.0000   1.0000   1.0000
     1.0000   1.0000

          k = 0.0000 0.2887 0.1561 (  1908 PWs)   bands (ev):

  -115.9193-115.9192 -69.5961 -69.5761 -69.5674 -69.5572 -69.5479 -69.5456
    -8.1718  -7.7666   2.9736   3.2091   3.4179   3.4824   3.5950   3.6528
     4.3319   4.3934   4.4923   4.6667   5.7734   6.8506   7.2989   7.9234
     8.6507   8.7252

     occupation numbers 
     1.0000   1.0000   1.0000   1.0000   1.0000   1.0000   1.0000   1.0000
     1.0000   1.0000   1.0000   1.0000   1.0000   1.0000   1.0000   1.0000
     1.0000   1.0000   1.0000   1.0000   1.0000   1.0000   1.0000   1.0000
     1.0000   1.0000

          k = 0.0000 0.2887-0.3121 (  1918 PWs)   bands (ev):

  -115.9193-115.9193 -69.5961 -69.5961 -69.5724 -69.5724 -69.5570 -69.5570
    -7.9700  -7.9700   2.9636   2.9636   3.4848   3.4848   3.4916   3.4916
     4.4435   4.4435   4.4654   4.4654   6.5209   6.5209   7.9413   7.9413
     8.3235   8.3235

     occupation numbers 
     1.0000   1.0000   1.0000   1.0000   1.0000   1.0000   1.0000   1.0000
     1.0000   1.0000   1.0000   1.0000   1.0000   1.0000   1.0000   1.0000
     1.0000   1.0000   1.0000   1.0000   1.0000   1.0000   1.0000   1.0000
     1.0000   1.0000

          k = 0.0000-0.5774 0.0000 (  1906 PWs)   bands (ev):

  -115.9192-115.9192 -69.5738 -69.5665 -69.5622 -69.5595 -69.5549 -69.5489
    -7.8520  -7.6179   3.0761   3.3607   3.5113   3.9247   3.9532   3.9668
     4.3723   4.4894   4.5992   4.7303   5.2828   5.5428   6.3685   6.9824
     7.9931   8.4192

     occupation numbers 
     1.0000   1.0000   1.0000   1.0000   1.0000   1.0000   1.0000   1.0000
     1.0000   1.0000   1.0000   1.0000   1.0000   1.0000   1.0000   1.0000
     1.0000   1.0000   1.0000   1.0000   1.0000   1.0000   1.0000   1.0000
     1.0000   1.0000

          k = 0.0000-0.5774 0.1561 (  1932 PWs)   bands (ev):

  -115.9193-115.9192 -69.5978 -69.5948 -69.5890 -69.5842 -69.5841 -69.5728
    -7.8138  -7.6479   2.9823   3.1469   3.5248   3.8322   3.8390   3.8442
     4.4438   4.4696   4.4859   4.6793   5.1578   5.4051   6.9853   7.1830
     8.1419   8.1994

     occupation numbers 
     1.0000   1.0000   1.0000   1.0000   1.0000   1.0000   1.0000   1.0000
     1.0000   1.0000   1.0000   1.0000   1.0000   1.0000   1.0000   1.0000
     1.0000   1.0000   1.0000   1.0000   1.0000   1.0000   1.0000   1.0000
     1.0000   1.0000

          k = 0.0000-0.5774-0.3121 (  1924 PWs)   bands (ev):

  -115.9192-115.9192 -69.5894 -69.5894 -69.5730 -69.5730 -69.5711 -69.5711
    -7.7249  -7.7249   2.9594   2.9594   3.6827   3.6827   3.8017   3.8017
     4.4769   4.4769   4.6296   4.6296   5.2413   5.2413   7.7053   7.7053
     7.8918   7.8918

     occupation numbers 
     1.0000   1.0000   1.0000   1.0000   1.0000   1.0000   1.0000   1.0000
     1.0000   1.0000   1.0000   1.0000   1.0000   1.0000   1.0000   1.0000
     1.0000   1.0000   1.0000   1.0000   1.0000   1.0000   1.0000   1.0000
     1.0000   1.0000

          k = 0.2500 0.4330 0.0000 (  1931 PWs)   bands (ev):

  -115.9193-115.9192 -69.6073 -69.5853 -69.5837 -69.5795 -69.5773 -69.5701
    -7.8645  -7.6126   3.2052   3.3576   3.6331   3.6438   3.9829   4.1342
     4.2089   4.3188   4.5622   4.8607   5.1443   5.8794   6.2942   6.5060
     7.8922   8.0324

     occupation numbers 
     1.0000   1.0000   1.0000   1.0000   1.0000   1.0000   1.0000   1.0000
     1.0000   1.0000   1.0000   1.0000   1.0000   1.0000   1.0000   1.0000
     1.0000   1.0000   1.0000   1.0000   1.0000   1.0000   1.0000   1.0000
     1.0000   1.0000

          k = 0.2500 0.4330 0.1561 (  1924 PWs)   bands (ev):

  -115.9193-115.9192 -69.6038 -69.5863 -69.5783 -69.5730 -69.5623 -69.5572
    -7.8233  -7.6439   3.2037   3.2213   3.5764   3.6027   3.8647   3.8869
     4.2924   4.4574   4.5894   4.8132   5.3388   5.8732   6.4118   7.0669
     7.6731   8.1798

     occupation numbers 
     1.0000   1.0000   1.0000   1.0000   1.0000   1.0000   1.0000   1.0000
     1.0000   1.0000   1.0000   1.0000   1.0000   1.0000   1.0000   1.0000
     1.0000   1.0000   1.0000   1.0000   1.0000   1.0000   1.0000   1.0000
     1.0000   1.0000

          k = 0.2500 0.4330-0.3121 (  1934 PWs)   bands (ev):

  -115.9193-115.9193 -69.6016 -69.6016 -69.5887 -69.5887 -69.5756 -69.5756
    -7.7290  -7.7290   3.1203   3.1203   3.5278   3.5278   3.7622   3.7622
     4.3736   4.3736   4.6706   4.6706   5.6009   5.6009   6.9715   6.9715
     8.0030   8.0030

     occupation numbers 
     1.0000   1.0000   1.0000   1.0000   1.0000   1.0000   1.0000   1.0000
     1.0000   1.0000   1.0000   1.0000   1.0000   1.0000   1.0000   1.0000
     1.0000   1.0000   1.0000   1.0000   1.0000   1.0000   1.0000   1.0000
     1.0000   1.0000

          k =-0.2500 0.1443 0.0000 (  1916 PWs)   bands (ev):

  -115.9194-115.9192 -69.5959 -69.5856 -69.5839 -69.5744 -69.5553 -69.5439
    -8.2553  -7.6834   3.0231   3.3565   3.3826   3.5498   3.6099   3.9049
     4.1992   4.3522   4.5459   4.8107   4.9477   6.6980   7.4131   7.7259
     8.8160   8.8757

     occupation numbers 
     1.0000   1.0000   1.0000   1.0000   1.0000   1.0000   1.0000   1.0000
     1.0000   1.0000   1.0000   1.0000   1.0000   1.0000   1.0000   1.0000
     1.0000   1.0000   1.0000   1.0000   1.0000   1.0000   1.0000   1.0000
     1.0000   1.0000

          k =-0.2500 0.1443 0.1561 (  1908 PWs)   bands (ev):

  -115.9193-115.9192 -69.5960 -69.5760 -69.5675 -69.5572 -69.5480 -69.5457
    -8.1719  -7.7666   2.9739   3.2089   3.4171   3.4826   3.5944   3.6531
     4.3322   4.3933   4.4924   4.6664   5.7735   6.8511   7.2996   7.9232
     8.6510   8.7253

     occupation numbers 
     1.0000   1.0000   1.0000   1.0000   1.0000   1.0000   1.0000   1.0000
     1.0000   1.0000   1.0000   1.0000   1.0000   1.0000   1.0000   1.0000
     1.0000   1.0000   1.0000   1.0000   1.0000   1.0000   1.0000   1.0000
     1.0000   1.0000

          k =-0.2500 0.1443-0.3121 (  1918 PWs)   bands (ev):

  -115.9193-115.9193 -69.5961 -69.5961 -69.5724 -69.5724 -69.5570 -69.5570
    -7.9700  -7.9700   2.9638   2.9638   3.4850   3.4850   3.4909   3.4909
     4.4436   4.4436   4.4654   4.4654   6.5212   6.5212   7.9416   7.9416
     8.3234   8.3234

     occupation numbers 
     1.0000   1.0000   1.0000   1.0000   1.0000   1.0000   1.0000   1.0000
     1.0000   1.0000   1.0000   1.0000   1.0000   1.0000   1.0000   1.0000
     1.0000   1.0000   1.0000   1.0000   1.0000   1.0000   1.0000   1.0000
     1.0000   1.0000

          k = 0.5000-0.2887 0.0000 (  1906 PWs)   bands (ev):

  -115.9192-115.9192 -69.5737 -69.5664 -69.5623 -69.5597 -69.5549 -69.5489
    -7.8523  -7.6177   3.0761   3.3602   3.5102   3.9244   3.9539   3.9657
     4.3725   4.4892   4.5993   4.7310   5.2835   5.5438   6.3673   6.9829
     7.9946   8.4198

     occupation numbers 
     1.0000   1.0000   1.0000   1.0000   1.0000   1.0000   1.0000   1.0000
     1.0000   1.0000   1.0000   1.0000   1.0000   1.0000   1.0000   1.0000
     1.0000   1.0000   1.0000   1.0000   1.0000   1.0000   1.0000   1.0000
     1.0000   1.0000

          k = 0.5000-0.2887 0.1561 (  1932 PWs)   bands (ev):

  -115.9193-115.9192 -69.5978 -69.5949 -69.5889 -69.5843 -69.5840 -69.5727
    -7.8140  -7.6478   2.9824   3.1466   3.5237   3.8322   3.8380   3.8449
     4.4436   4.4697   4.4860   4.6797   5.1582   5.4059   6.9847   7.1835
     8.1430   8.1999

     occupation numbers 
     1.0000   1.0000   1.0000   1.0000   1.0000   1.0000   1.0000   1.0000
     1.0000   1.0000   1.0000   1.0000   1.0000   1.0000   1.0000   1.0000
     1.0000   1.0000   1.0000   1.0000   1.0000   1.0000   1.0000   1.0000
     1.0000   1.0000

          k = 0.5000-0.2887-0.3121 (  1924 PWs)   bands (ev):

  -115.9192-115.9192 -69.5892 -69.5892 -69.5732 -69.5732 -69.5711 -69.5711
    -7.7250  -7.7250   2.9594   2.9594   3.6817   3.6817   3.8020   3.8020
     4.4768   4.4768   4.6299   4.6299   5.2417   5.2417   7.7059   7.7059
     7.8920   7.8920

     occupation numbers 
     1.0000   1.0000   1.0000   1.0000   1.0000   1.0000   1.0000   1.0000
     1.0000   1.0000   1.0000   1.0000   1.0000   1.0000   1.0000   1.0000
     1.0000   1.0000   1.0000   1.0000   1.0000   1.0000   1.0000   1.0000
     1.0000   1.0000

          k =-0.2500 0.4330 0.0000 (  1931 PWs)   bands (ev):

  -115.9193-115.9192 -69.6072 -69.5854 -69.5838 -69.5796 -69.5774 -69.5700
    -7.8646  -7.6126   3.2052   3.3577   3.6331   3.6431   3.9825   4.1336
     4.2090   4.3186   4.5623   4.8608   5.1456   5.8793   6.2949   6.5062
     7.8919   8.0329

     occupation numbers 
     1.0000   1.0000   1.0000   1.0000   1.0000   1.0000   1.0000   1.0000
     1.0000   1.0000   1.0000   1.0000   1.0000   1.0000   1.0000   1.0000
     1.0000   1.0000   1.0000   1.0000   1.0000   1.0000   1.0000   1.0000
     1.0000   1.0000

          k =-0.2500 0.4330 0.1561 (  1924 PWs)   bands (ev):

  -115.9193-115.9192 -69.6038 -69.5863 -69.5783 -69.5730 -69.5623 -69.5571
    -7.8234  -7.6439   3.2039   3.2214   3.5758   3.6028   3.8642   3.8863
     4.2925   4.4575   4.5895   4.8132   5.3397   5.8738   6.4117   7.0672
     7.6726   8.1802

     occupation numbers 
     1.0000   1.0000   1.0000   1.0000   1.0000   1.0000   1.0000   1.0000
     1.0000   1.0000   1.0000   1.0000   1.0000   1.0000   1.0000   1.0000
     1.0000   1.0000   1.0000   1.0000   1.0000   1.0000   1.0000   1.0000
     1.0000   1.0000

          k =-0.2500 0.4330-0.3121 (  1934 PWs)   bands (ev):

  -115.9193-115.9193 -69.6016 -69.6016 -69.5887 -69.5887 -69.5756 -69.5756
    -7.7291  -7.7291   3.1204   3.1204   3.5276   3.5276   3.7615   3.7615
     4.3739   4.3739   4.6707   4.6707   5.6018   5.6018   6.9713   6.9713
     8.0030   8.0030

     occupation numbers 
     1.0000   1.0000   1.0000   1.0000   1.0000   1.0000   1.0000   1.0000
     1.0000   1.0000   1.0000   1.0000   1.0000   1.0000   1.0000   1.0000
     1.0000   1.0000   1.0000   1.0000   1.0000   1.0000   1.0000   1.0000
     1.0000   1.0000

 ------ SPIN DOWN ----------


          k = 0.0000 0.0000 0.0000 (  1907 PWs)   bands (ev):

  -115.9194-115.9193 -69.5866 -69.5865 -69.5840 -69.5547 -69.5546 -69.5318
    -8.5722  -7.8079   3.2161   3.2170   3.3992   3.4125   3.4129   3.6189
     4.3157   4.3160   4.4232   4.4234   4.9918   8.4787   8.4799   9.2670
     9.2670   9.2870

     occupation numbers 
     1.0000   1.0000   1.0000   1.0000   1.0000   1.0000   1.0000   1.0000
     1.0000   1.0000   1.0000   1.0000   1.0000   1.0000   1.0000   1.0000
     1.0000   1.0000   1.0000   1.0000   1.0000   1.0000   1.0000   1.0000
     1.0000   1.0000

          k = 0.0000 0.0000 0.1561 (  1882 PWs)   bands (ev):

  -115.9194-115.9192 -69.5868 -69.5657 -69.5299 -69.5299 -69.5264 -69.5263
    -8.4661  -7.9244   3.2283   3.2902   3.2910   3.3182   3.4197   3.4202
     4.3771   4.3773   4.5413   4.5415   5.6502   8.1813   8.6577   8.6588
     9.2032   9.2035

     occupation numbers 
     1.0000   1.0000   1.0000   1.0000   1.0000   1.0000   1.0000   1.0000
     1.0000   1.0000   1.0000   1.0000   1.0000   1.0000   1.0000   1.0000
     1.0000   1.0000   1.0000   1.0000   1.0000   1.0000   1.0000   1.0000
     1.0000   1.0000

          k = 0.0000 0.0000-0.3121 (  1894 PWs)   bands (ev):

  -115.9193-115.9193 -69.6035 -69.6035 -69.5345 -69.5345 -69.5344 -69.5344
    -8.2012  -8.2012   3.1075   3.1075   3.3416   3.3416   3.3423   3.3423
     4.4256   4.4256   4.4257   4.4257   6.9175   6.9175   8.9242   8.9242
     8.9249   8.9249

     occupation numbers 
     1.0000   1.0000   1.0000   1.0000   1.0000   1.0000   1.0000   1.0000
     1.0000   1.0000   1.0000   1.0000   1.0000   1.0000   1.0000   1.0000
     1.0000   1.0000   1.0000   1.0000   1.0000   1.0000   1.0000   1.0000
     1.0000   1.0000

          k = 0.0000 0.2887 0.0000 (  1916 PWs)   bands (ev):

  -115.9194-115.9192 -69.5959 -69.5857 -69.5838 -69.5744 -69.5553 -69.5439
    -8.2552  -7.6834   3.0226   3.3569   3.3835   3.5494   3.6105   3.9047
     4.1989   4.3523   4.5457   4.8105   4.9481   6.6973   7.4125   7.7262
     8.8156   8.8755

     occupation numbers 
     1.0000   1.0000   1.0000   1.0000   1.0000   1.0000   1.0000   1.0000
     1.0000   1.0000   1.0000   1.0000   1.0000   1.0000   1.0000   1.0000
     1.0000   1.0000   1.0000   1.0000   1.0000   1.0000   1.0000   1.0000
     1.0000   1.0000

          k = 0.0000 0.2887 0.1561 (  1908 PWs)   bands (ev):

  -115.9193-115.9192 -69.5961 -69.5761 -69.5674 -69.5572 -69.5479 -69.5456
    -8.1718  -7.7666   2.9736   3.2091   3.4179   3.4824   3.5950   3.6528
     4.3319   4.3934   4.4923   4.6667   5.7734   6.8506   7.2989   7.9234
     8.6507   8.7252

     occupation numbers 
     1.0000   1.0000   1.0000   1.0000   1.0000   1.0000   1.0000   1.0000
     1.0000   1.0000   1.0000   1.0000   1.0000   1.0000   1.0000   1.0000
     1.0000   1.0000   1.0000   1.0000   1.0000   1.0000   1.0000   1.0000
     1.0000   1.0000

          k = 0.0000 0.2887-0.3121 (  1918 PWs)   bands (ev):

  -115.9193-115.9193 -69.5961 -69.5961 -69.5724 -69.5724 -69.5570 -69.5570
    -7.9700  -7.9700   2.9636   2.9636   3.4848   3.4848   3.4916   3.4916
     4.4435   4.4435   4.4654   4.4654   6.5209   6.5209   7.9413   7.9413
     8.3235   8.3235

     occupation numbers 
     1.0000   1.0000   1.0000   1.0000   1.0000   1.0000   1.0000   1.0000
     1.0000   1.0000   1.0000   1.0000   1.0000   1.0000   1.0000   1.0000
     1.0000   1.0000   1.0000   1.0000   1.0000   1.0000   1.0000   1.0000
     1.0000   1.0000

          k = 0.0000-0.5774 0.0000 (  1906 PWs)   bands (ev):

  -115.9192-115.9192 -69.5738 -69.5665 -69.5622 -69.5595 -69.5549 -69.5489
    -7.8520  -7.6179   3.0761   3.3607   3.5113   3.9247   3.9532   3.9668
     4.3723   4.4894   4.5992   4.7303   5.2828   5.5428   6.3685   6.9824
     7.9931   8.4192

     occupation numbers 
     1.0000   1.0000   1.0000   1.0000   1.0000   1.0000   1.0000   1.0000
     1.0000   1.0000   1.0000   1.0000   1.0000   1.0000   1.0000   1.0000
     1.0000   1.0000   1.0000   1.0000   1.0000   1.0000   1.0000   1.0000
     1.0000   1.0000

          k = 0.0000-0.5774 0.1561 (  1932 PWs)   bands (ev):

  -115.9193-115.9192 -69.5978 -69.5948 -69.5890 -69.5842 -69.5841 -69.5728
    -7.8138  -7.6479   2.9823   3.1469   3.5248   3.8322   3.8390   3.8442
     4.4438   4.4696   4.4859   4.6793   5.1578   5.4051   6.9853   7.1830
     8.1419   8.1994

     occupation numbers 
     1.0000   1.0000   1.0000   1.0000   1.0000   1.0000   1.0000   1.0000
     1.0000   1.0000   1.0000   1.0000   1.0000   1.0000   1.0000   1.0000
     1.0000   1.0000   1.0000   1.0000   1.0000   1.0000   1.0000   1.0000
     1.0000   1.0000

          k = 0.0000-0.5774-0.3121 (  1924 PWs)   bands (ev):

  -115.9192-115.9192 -69.5894 -69.5894 -69.5730 -69.5730 -69.5711 -69.5711
    -7.7249  -7.7249   2.9594   2.9594   3.6827   3.6827   3.8017   3.8017
     4.4769   4.4769   4.6296   4.6296   5.2413   5.2413   7.7053   7.7053
     7.8918   7.8918

     occupation numbers 
     1.0000   1.0000   1.0000   1.0000   1.0000   1.0000   1.0000   1.0000
     1.0000   1.0000   1.0000   1.0000   1.0000   1.0000   1.0000   1.0000
     1.0000   1.0000   1.0000   1.0000   1.0000   1.0000   1.0000   1.0000
     1.0000   1.0000

          k = 0.2500 0.4330 0.0000 (  1931 PWs)   bands (ev):

  -115.9193-115.9192 -69.6073 -69.5853 -69.5837 -69.5795 -69.5773 -69.5701
    -7.8645  -7.6126   3.2052   3.3576   3.6331   3.6438   3.9829   4.1342
     4.2089   4.3188   4.5622   4.8607   5.1443   5.8794   6.2942   6.5060
     7.8922   8.0324

     occupation numbers 
     1.0000   1.0000   1.0000   1.0000   1.0000   1.0000   1.0000   1.0000
     1.0000   1.0000   1.0000   1.0000   1.0000   1.0000   1.0000   1.0000
     1.0000   1.0000   1.0000   1.0000   1.0000   1.0000   1.0000   1.0000
     1.0000   1.0000

          k = 0.2500 0.4330 0.1561 (  1924 PWs)   bands (ev):

  -115.9193-115.9192 -69.6038 -69.5863 -69.5783 -69.5730 -69.5623 -69.5572
    -7.8233  -7.6439   3.2037   3.2213   3.5764   3.6027   3.8647   3.8869
     4.2924   4.4574   4.5894   4.8132   5.3388   5.8732   6.4118   7.0669
     7.6731   8.1798

     occupation numbers 
     1.0000   1.0000   1.0000   1.0000   1.0000   1.0000   1.0000   1.0000
     1.0000   1.0000   1.0000   1.0000   1.0000   1.0000   1.0000   1.0000
     1.0000   1.0000   1.0000   1.0000   1.0000   1.0000   1.0000   1.0000
     1.0000   1.0000

          k = 0.2500 0.4330-0.3121 (  1934 PWs)   bands (ev):

  -115.9193-115.9193 -69.6016 -69.6016 -69.5887 -69.5887 -69.5756 -69.5756
    -7.7290  -7.7290   3.1203   3.1203   3.5278   3.5278   3.7622   3.7622
     4.3736   4.3736   4.6706   4.6706   5.6009   5.6009   6.9715   6.9715
     8.0030   8.0030

     occupation numbers 
     1.0000   1.0000   1.0000   1.0000   1.0000   1.0000   1.0000   1.0000
     1.0000   1.0000   1.0000   1.0000   1.0000   1.0000   1.0000   1.0000
     1.0000   1.0000   1.0000   1.0000   1.0000   1.0000   1.0000   1.0000
     1.0000   1.0000

          k =-0.2500 0.1443 0.0000 (  1916 PWs)   bands (ev):

  -115.9194-115.9192 -69.5959 -69.5856 -69.5839 -69.5744 -69.5553 -69.5439
    -8.2553  -7.6834   3.0231   3.3565   3.3826   3.5498   3.6099   3.9049
     4.1992   4.3522   4.5459   4.8107   4.9477   6.6980   7.4131   7.7259
     8.8160   8.8757

     occupation numbers 
     1.0000   1.0000   1.0000   1.0000   1.0000   1.0000   1.0000   1.0000
     1.0000   1.0000   1.0000   1.0000   1.0000   1.0000   1.0000   1.0000
     1.0000   1.0000   1.0000   1.0000   1.0000   1.0000   1.0000   1.0000
     1.0000   1.0000

          k =-0.2500 0.1443 0.1561 (  1908 PWs)   bands (ev):

  -115.9193-115.9192 -69.5960 -69.5760 -69.5675 -69.5572 -69.5480 -69.5457
    -8.1719  -7.7666   2.9739   3.2089   3.4171   3.4826   3.5944   3.6531
     4.3322   4.3933   4.4924   4.6664   5.7735   6.8511   7.2996   7.9232
     8.6510   8.7253

     occupation numbers 
     1.0000   1.0000   1.0000   1.0000   1.0000   1.0000   1.0000   1.0000
     1.0000   1.0000   1.0000   1.0000   1.0000   1.0000   1.0000   1.0000
     1.0000   1.0000   1.0000   1.0000   1.0000   1.0000   1.0000   1.0000
     1.0000   1.0000

          k =-0.2500 0.1443-0.3121 (  1918 PWs)   bands (ev):

  -115.9193-115.9193 -69.5961 -69.5961 -69.5724 -69.5724 -69.5570 -69.5570
    -7.9700  -7.9700   2.9638   2.9638   3.4850   3.4850   3.4909   3.4909
     4.4436   4.4436   4.4654   4.4654   6.5212   6.5212   7.9416   7.9416
     8.3234   8.3234

     occupation numbers 
     1.0000   1.0000   1.0000   1.0000   1.0000   1.0000   1.0000   1.0000
     1.0000   1.0000   1.0000   1.0000   1.0000   1.0000   1.0000   1.0000
     1.0000   1.0000   1.0000   1.0000   1.0000   1.0000   1.0000   1.0000
     1.0000   1.0000

          k = 0.5000-0.2887 0.0000 (  1906 PWs)   bands (ev):

  -115.9192-115.9192 -69.5737 -69.5664 -69.5623 -69.5597 -69.5549 -69.5489
    -7.8523  -7.6177   3.0761   3.3602   3.5102   3.9244   3.9539   3.9657
     4.3725   4.4892   4.5993   4.7310   5.2835   5.5438   6.3673   6.9829
     7.9946   8.4198

     occupation numbers 
     1.0000   1.0000   1.0000   1.0000   1.0000   1.0000   1.0000   1.0000
     1.0000   1.0000   1.0000   1.0000   1.0000   1.0000   1.0000   1.0000
     1.0000   1.0000   1.0000   1.0000   1.0000   1.0000   1.0000   1.0000
     1.0000   1.0000

          k = 0.5000-0.2887 0.1561 (  1932 PWs)   bands (ev):

  -115.9193-115.9192 -69.5978 -69.5949 -69.5889 -69.5843 -69.5840 -69.5727
    -7.8140  -7.6478   2.9824   3.1466   3.5237   3.8322   3.8380   3.8449
     4.4436   4.4697   4.4860   4.6797   5.1582   5.4059   6.9847   7.1835
     8.1430   8.1999

     occupation numbers 
     1.0000   1.0000   1.0000   1.0000   1.0000   1.0000   1.0000   1.0000
     1.0000   1.0000   1.0000   1.0000   1.0000   1.0000   1.0000   1.0000
     1.0000   1.0000   1.0000   1.0000   1.0000   1.0000   1.0000   1.0000
     1.0000   1.0000

          k = 0.5000-0.2887-0.3121 (  1924 PWs)   bands (ev):

  -115.9192-115.9192 -69.5892 -69.5892 -69.5732 -69.5732 -69.5711 -69.5711
    -7.7250  -7.7250   2.9594   2.9594   3.6817   3.6817   3.8020   3.8020
     4.4768   4.4768   4.6299   4.6299   5.2417   5.2417   7.7059   7.7059
     7.8920   7.8920

     occupation numbers 
     1.0000   1.0000   1.0000   1.0000   1.0000   1.0000   1.0000   1.0000
     1.0000   1.0000   1.0000   1.0000   1.0000   1.0000   1.0000   1.0000
     1.0000   1.0000   1.0000   1.0000   1.0000   1.0000   1.0000   1.0000
     1.0000   1.0000

          k =-0.2500 0.4330 0.0000 (  1931 PWs)   bands (ev):

  -115.9193-115.9192 -69.6072 -69.5854 -69.5838 -69.5796 -69.5774 -69.5700
    -7.8646  -7.6126   3.2052   3.3577   3.6331   3.6431   3.9825   4.1336
     4.2090   4.3186   4.5623   4.8608   5.1456   5.8793   6.2949   6.5062
     7.8919   8.0329

     occupation numbers 
     1.0000   1.0000   1.0000   1.0000   1.0000   1.0000   1.0000   1.0000
     1.0000   1.0000   1.0000   1.0000   1.0000   1.0000   1.0000   1.0000
     1.0000   1.0000   1.0000   1.0000   1.0000   1.0000   1.0000   1.0000
     1.0000   1.0000

          k =-0.2500 0.4330 0.1561 (  1924 PWs)   bands (ev):

  -115.9193-115.9192 -69.6038 -69.5863 -69.5783 -69.5730 -69.5623 -69.5571
    -7.8234  -7.6439   3.2039   3.2214   3.5758   3.6028   3.8642   3.8863
     4.2925   4.4575   4.5895   4.8132   5.3397   5.8738   6.4117   7.0672
     7.6726   8.1802

     occupation numbers 
     1.0000   1.0000   1.0000   1.0000   1.0000   1.0000   1.0000   1.0000
     1.0000   1.0000   1.0000   1.0000   1.0000   1.0000   1.0000   1.0000
     1.0000   1.0000   1.0000   1.0000   1.0000   1.0000   1.0000   1.0000
     1.0000   1.0000

          k =-0.2500 0.4330-0.3121 (  1934 PWs)   bands (ev):

  -115.9193-115.9193 -69.6016 -69.6016 -69.5887 -69.5887 -69.5756 -69.5756
    -7.7291  -7.7291   3.1204   3.1204   3.5276   3.5276   3.7615   3.7615
     4.3739   4.3739   4.6707   4.6707   5.6018   5.6018   6.9713   6.9713
     8.0030   8.0030

     occupation numbers 
     1.0000   1.0000   1.0000   1.0000   1.0000   1.0000   1.0000   1.0000
     1.0000   1.0000   1.0000   1.0000   1.0000   1.0000   1.0000   1.0000
     1.0000   1.0000   1.0000   1.0000   1.0000   1.0000   1.0000   1.0000
     1.0000   1.0000

     highest occupied level (ev):     9.2870

!    total energy              =    -900.52150873 Ry
     estimated scf accuracy    <          4.8E-09 Ry

     The total energy is the sum of the following terms:
     one-electron contribution =    -609.76479186 Ry
     hartree contribution      =     321.34200965 Ry
     xc contribution           =    -104.68521208 Ry
     ewald contribution        =    -507.41351445 Ry

     total magnetization       =    -0.00 Bohr mag/cell
     absolute magnetization    =     0.00 Bohr mag/cell

     convergence has been achieved in   8 iterations

     Writing all to output data dir /scratch/elinscott/materials_cloud_archive/zno/TMP/kc.save/
 
     init_run     :      0.09s CPU      0.12s WALL (       1 calls)
     electrons    :      1.29s CPU      1.34s WALL (       1 calls)

     Called by init_run:
     wfcinit      :      0.04s CPU      0.05s WALL (       1 calls)
     wfcinit:atom :      0.00s CPU      0.00s WALL (      11 calls)
     wfcinit:wfcr :      0.04s CPU      0.04s WALL (      11 calls)
     potinit      :      0.01s CPU      0.01s WALL (       1 calls)
     hinit0       :      0.02s CPU      0.04s WALL (       1 calls)

     Called by electrons:
     c_bands      :      1.12s CPU      1.16s WALL (       8 calls)
     sum_band     :      0.14s CPU      0.15s WALL (       8 calls)
     v_of_rho     :      0.01s CPU      0.01s WALL (       9 calls)
     v_h          :      0.00s CPU      0.00s WALL (       9 calls)
     v_xc         :      0.01s CPU      0.01s WALL (       9 calls)
     mix_rho      :      0.01s CPU      0.01s WALL (       8 calls)

     Called by c_bands:
     init_us_2    :      0.02s CPU      0.02s WALL (     187 calls)
     init_us_2:cp :      0.02s CPU      0.02s WALL (     187 calls)
     cegterg      :      0.94s CPU      0.97s WALL (      88 calls)

     Called by sum_band:
     sum_band:wei :      0.00s CPU      0.00s WALL (       8 calls)
     sum_band:loo :      0.13s CPU      0.14s WALL (       8 calls)
     sum_band:buf :      0.00s CPU      0.00s WALL (      88 calls)
     sum_band:ini :      0.01s CPU      0.01s WALL (      88 calls)

     Called by *egterg:
     cdiaghg      :      0.18s CPU      0.19s WALL (     323 calls)
     cegterg:over :      0.04s CPU      0.04s WALL (     235 calls)
     cegterg:upda :      0.02s CPU      0.02s WALL (     235 calls)
     cegterg:last :      0.02s CPU      0.02s WALL (     187 calls)
     h_psi        :      0.67s CPU      0.71s WALL (     334 calls)
     g_psi        :      0.00s CPU      0.00s WALL (     235 calls)

     Called by h_psi:
     h_psi:calbec :      0.03s CPU      0.04s WALL (     334 calls)
     vloc_psi     :      0.60s CPU      0.63s WALL (     334 calls)
     add_vuspsi   :      0.03s CPU      0.03s WALL (     334 calls)

     General routines
     calbec       :      0.03s CPU      0.04s WALL (     334 calls)
     fft          :      0.01s CPU      0.02s WALL (      43 calls)
     ffts         :      0.00s CPU      0.00s WALL (      16 calls)
     fftw         :      0.63s CPU      0.66s WALL (   15180 calls)
 
     Parallel routines
 
     PWSCF        :      1.43s CPU      1.53s WALL

 
   This run was terminated on:  12: 3:56  12Dec2022            

=------------------------------------------------------------------------------=
   JOB DONE.
=------------------------------------------------------------------------------=
