
     Program PWSCF v.7.1 starts on 12Dec2022 at 11:54:42 

     This program is part of the open-source Quantum ESPRESSO suite
     for quantum simulation of materials; please cite
         "P. Giannozzi et al., J. Phys.:Condens. Matter 21 395502 (2009);
         "P. Giannozzi et al., J. Phys.:Condens. Matter 29 465901 (2017);
         "P. Giannozzi et al., J. Chem. Phys. 152 154105 (2020);
          URL http://www.quantum-espresso.org", 
     in publications or presentations arising from this work. More details at
     http://www.quantum-espresso.org/quote

     Parallel version (MPI), running on    16 processors

     MPI processes distributed on     1 nodes
     73472 MiB available memory on the printing compute node when the environment starts
 
     Reading input from bands.pwi
Warning: card &IONS ignored
Warning: card / ignored
Warning: card &CELL ignored
Warning: card / ignored

     Current dimensions of program PWSCF are:
     Max number of different atomic species (ntypx) = 10
     Max number of k-points (npk) =  40000
     Max angular momentum in pseudopotentials (lmaxx) =  4

     Atomic positions and unit cell read from directory:
     /scratch/elinscott/materials_cloud_archive/zno/coarse_grid/TMP/kc_bands.save/
     Atomic positions from file used, from input discarded
 
 
     K-points division:     npool     =       4
     R & G space division:  proc/nbgrp/npool/nimage =       4
     Subspace diagonalization in iterative solution of the eigenvalue problem:
     a serial algorithm will be used

 
     Parallelization info
     --------------------
     sticks:   dense  smooth     PW     G-vecs:    dense   smooth      PW
     Min         127     127     40                 3819     3819     654
     Max         128     128     42                 3826     3826     657
     Sum         511     511    163                15291    15291    2623
 
     Using Slab Decomposition
 


     bravais-lattice index     =            4
     lattice parameter (alat)  =       6.1406  a.u.
     unit-cell volume          =     321.2403 (a.u.)^3
     number of atoms/cell      =            4
     number of atomic types    =            2
     number of electrons       =        52.00 (up:  26.00, down:  26.00)
     number of Kohn-Sham states=           52
     kinetic-energy cutoff     =      50.0000  Ry
     charge density cutoff     =     200.0000  Ry
     Exchange-correlation= SLA  PW   NOGX NOGC
                           (   1   4   0   0   0   0   0)

     celldm(1)=   6.140570  celldm(2)=   0.000000  celldm(3)=   1.602040
     celldm(4)=   0.000000  celldm(5)=   0.000000  celldm(6)=   0.000000

     crystal axes: (cart. coord. in units of alat)
               a(1) = (   1.000000   0.000000   0.000000 )  
               a(2) = (  -0.500000   0.866025   0.000000 )  
               a(3) = (   0.000000   0.000000   1.602040 )  

     reciprocal axes: (cart. coord. in units 2 pi/alat)
               b(1) = (  1.000000  0.577350  0.000000 )  
               b(2) = (  0.000000  1.154701  0.000000 )  
               b(3) = (  0.000000  0.000000  0.624204 )  


     PseudoPot. # 1 for Zn read from file:
     /home/elinscott/code/koopmans/src/koopmans/pseudopotentials/pseudo_dojo_standard_v0.4.1/lda/Zn.upf
     MD5 check sum: 492e12d15cacde48a98384ec5dd6fb31
     Pseudo is Norm-conserving + core correction, Zval = 20.0
     Generated using ONCVPSP code by D. R. Hamann
     Using radial grid of 1296 points,  6 beta functions with: 
                l(1) =   0
                l(2) =   0
                l(3) =   1
                l(4) =   1
                l(5) =   2
                l(6) =   2

     PseudoPot. # 2 for O  read from file:
     /home/elinscott/code/koopmans/src/koopmans/pseudopotentials/pseudo_dojo_standard_v0.4.1/lda/O.upf
     MD5 check sum: 86ed389b6a5065e60c3f64c68a612de9
     Pseudo is Norm-conserving + core correction, Zval =  6.0
     Generated using ONCVPSP code by D. R. Hamann
     Using radial grid of  926 points,  5 beta functions with: 
                l(1) =   0
                l(2) =   0
                l(3) =   1
                l(4) =   1
                l(5) =   2

     atomic species   valence    mass     pseudopotential
        Zn            20.00    65.38000     Zn( 1.00)
        O              6.00    15.99900     O ( 1.00)

     Starting magnetic structure 
     atomic species   magnetization
        Zn           0.000
        O            0.000

      4 Sym. Ops. (no inversion) found ( 2 have fractional translation)


                                    s                        frac. trans.

      isym =  1     identity                                     

 cryst.   s( 1) = (     1          0          0      )
                  (     0          1          0      )
                  (     0          0          1      )

 cart.    s( 1) = (  1.0000000 -0.0000000  0.0000000 )
                  (  0.0000000  1.0000000  0.0000000 )
                  (  0.0000000  0.0000000  1.0000000 )


      isym =  2     180 deg rotation - cart. axis [0,0,1]        

 cryst.   s( 2) = (    -1          0          0      )    f =(  0.0000000 )
                  (     0         -1          0      )       (  0.0000000 )
                  (     0          0          1      )       (  0.5000000 )

 cart.    s( 2) = ( -1.0000000  0.0000000  0.0000000 )    f =(  0.0000000 )
                  (  0.0000000 -1.0000000  0.0000000 )       (  0.0000000 )
                  (  0.0000000  0.0000000  1.0000000 )       (  0.8010200 )


      isym =  3     inv. 180 deg rotation - cryst. axis [1,-1,0] 

 cryst.   s( 3) = (     0          1          0      )    f =(  0.0000000 )
                  (     1          0          0      )       ( -0.0000000 )
                  (     0          0          1      )       (  0.5000000 )

 cart.    s( 3) = ( -0.5000000  0.8660254  0.0000000 )    f =(  0.0000000 )
                  (  0.8660254  0.5000000  0.0000000 )       ( -0.0000000 )
                  (  0.0000000  0.0000000  1.0000000 )       (  0.8010200 )


      isym =  4     inv. 180 deg rotation - cryst. axis [1,1,0]  

 cryst.   s( 4) = (     0         -1          0      )
                  (    -1          0          0      )
                  (     0          0          1      )

 cart.    s( 4) = (  0.5000000 -0.8660254  0.0000000 )
                  ( -0.8660254 -0.5000000  0.0000000 )
                  (  0.0000000  0.0000000  1.0000000 )


     point group C_2v (mm2) 
     there are  4 classes
     the character table:

       E     C2    s_v   s_v' 
A_1    1.00  1.00  1.00  1.00
A_2    1.00  1.00 -1.00 -1.00
B_1    1.00 -1.00  1.00 -1.00
B_2    1.00 -1.00 -1.00  1.00

     the symmetry operations in each class and the name of the first element:

     E        1
          identity                                               
     C2       2
          180 deg rotation - cart. axis [0,0,1]                  
     s_v      3
          inv. 180 deg rotation - cryst. axis [1,-1,0]           
     s_v'     4
          inv. 180 deg rotation - cryst. axis [1,1,0]            

   Cartesian axes

     site n.     atom                  positions (alat units)
         1           Zn  tau(   1) = (  -0.0000500   0.5773791   0.8010200  )
         2           Zn  tau(   2) = (   0.5000500   0.2886463   0.0000000  )
         3           O   tau(   3) = (  -0.0000500   0.5773791   0.1878392  )
         4           O   tau(   4) = (   0.5000500   0.2886463   0.9888592  )

   Crystallographic axes

     site n.     atom                  positions (cryst. coord.)
         1           Zn  tau(   1) = (  0.3333000  0.6667000  0.5000000  )
         2           Zn  tau(   2) = (  0.6667000  0.3333000  0.0000000  )
         3           O   tau(   3) = (  0.3333000  0.6667000  0.1172500  )
         4           O   tau(   4) = (  0.6667000  0.3333000  0.6172500  )

     number of k points=    53
                       cart. coord. in units 2pi/alat
        k(    1) = (   0.0000000   0.0000000   0.3121021), wk =   0.0188679
        k(    2) = (   0.0500000   0.0288675   0.3121021), wk =   0.0188679
        k(    3) = (   0.1000000   0.0577350   0.3121021), wk =   0.0188679
        k(    4) = (   0.1500000   0.0866025   0.3121021), wk =   0.0188679
        k(    5) = (   0.2000000   0.1154701   0.3121021), wk =   0.0188679
        k(    6) = (   0.2500000   0.1443376   0.3121021), wk =   0.0188679
        k(    7) = (   0.3000000   0.1732051   0.3121021), wk =   0.0188679
        k(    8) = (   0.3500000   0.2020726   0.3121021), wk =   0.0188679
        k(    9) = (   0.4000000   0.2309401   0.3121021), wk =   0.0188679
        k(   10) = (   0.4500000   0.2598076   0.3121021), wk =   0.0188679
        k(   11) = (   0.5000000   0.2886751   0.3121021), wk =   0.0188679
        k(   12) = (   0.5000000   0.2886751   0.2496817), wk =   0.0188679
        k(   13) = (   0.5000000   0.2886751   0.1872612), wk =   0.0188679
        k(   14) = (   0.5000000   0.2886751   0.1248408), wk =   0.0188679
        k(   15) = (   0.5000000   0.2886751   0.0624204), wk =   0.0188679
        k(   16) = (   0.5000000   0.2886751   0.0000000), wk =   0.0188679
        k(   17) = (   0.4545455   0.2624319   0.0000000), wk =   0.0188679
        k(   18) = (   0.4090909   0.2361887   0.0000000), wk =   0.0188679
        k(   19) = (   0.3636364   0.2099456   0.0000000), wk =   0.0188679
        k(   20) = (   0.3181818   0.1837024   0.0000000), wk =   0.0188679
        k(   21) = (   0.2727273   0.1574592   0.0000000), wk =   0.0188679
        k(   22) = (   0.2272727   0.1312160   0.0000000), wk =   0.0188679
        k(   23) = (   0.1818182   0.1049728   0.0000000), wk =   0.0188679
        k(   24) = (   0.1363636   0.0787296   0.0000000), wk =   0.0188679
        k(   25) = (   0.0909091   0.0524864   0.0000000), wk =   0.0188679
        k(   26) = (   0.0454545   0.0262432   0.0000000), wk =   0.0188679
        k(   27) = (   0.0000000   0.0000000   0.0000000), wk =   0.0188679
        k(   28) = (   0.0000000   0.0000000   0.0520170), wk =   0.0188679
        k(   29) = (   0.0000000   0.0000000   0.1040340), wk =   0.0188679
        k(   30) = (   0.0000000   0.0000000   0.1560510), wk =   0.0188679
        k(   31) = (   0.0000000   0.0000000   0.2080680), wk =   0.0188679
        k(   32) = (   0.0000000   0.0000000   0.2600851), wk =   0.0188679
        k(   33) = (   0.0000000   0.0000000   0.3121021), wk =   0.0188679
        k(   34) = (   0.0256410   0.0444116   0.3121021), wk =   0.0188679
        k(   35) = (   0.0512821   0.0888231   0.3121021), wk =   0.0188679
        k(   36) = (   0.0769231   0.1332347   0.3121021), wk =   0.0188679
        k(   37) = (   0.1025641   0.1776462   0.3121021), wk =   0.0188679
        k(   38) = (   0.1282051   0.2220578   0.3121021), wk =   0.0188679
        k(   39) = (   0.1538462   0.2664694   0.3121021), wk =   0.0188679
        k(   40) = (   0.1794872   0.3108809   0.3121021), wk =   0.0188679
        k(   41) = (   0.2051282   0.3552925   0.3121021), wk =   0.0188679
        k(   42) = (   0.2307692   0.3997040   0.3121021), wk =   0.0188679
        k(   43) = (   0.2564103   0.4441156   0.3121021), wk =   0.0188679
        k(   44) = (   0.2820513   0.4885272   0.3121021), wk =   0.0188679
        k(   45) = (   0.3076923   0.5329387   0.3121021), wk =   0.0188679
        k(   46) = (   0.3333333   0.5773503   0.3121021), wk =   0.0188679
        k(   47) = (   0.3333333   0.5773503   0.2675161), wk =   0.0188679
        k(   48) = (   0.3333333   0.5773503   0.2229300), wk =   0.0188679
        k(   49) = (   0.3333333   0.5773503   0.1783440), wk =   0.0188679
        k(   50) = (   0.3333333   0.5773503   0.1337580), wk =   0.0188679
        k(   51) = (   0.3333333   0.5773503   0.0891720), wk =   0.0188679
        k(   52) = (   0.3333333   0.5773503   0.0445860), wk =   0.0188679
        k(   53) = (   0.3333333   0.5773503   0.0000000), wk =   0.0188679

                       cryst. coord.
        k(    1) = (   0.0000000   0.0000000   0.5000000), wk =   0.0188679
        k(    2) = (   0.0500000  -0.0000000   0.5000000), wk =   0.0188679
        k(    3) = (   0.1000000  -0.0000000   0.5000000), wk =   0.0188679
        k(    4) = (   0.1500000   0.0000000   0.5000000), wk =   0.0188679
        k(    5) = (   0.2000000  -0.0000000   0.5000000), wk =   0.0188679
        k(    6) = (   0.2500000   0.0000000   0.5000000), wk =   0.0188679
        k(    7) = (   0.3000000   0.0000000   0.5000000), wk =   0.0188679
        k(    8) = (   0.3500000   0.0000000   0.5000000), wk =   0.0188679
        k(    9) = (   0.4000000  -0.0000000   0.5000000), wk =   0.0188679
        k(   10) = (   0.4500000   0.0000000   0.5000000), wk =   0.0188679
        k(   11) = (   0.5000000   0.0000000   0.5000000), wk =   0.0188679
        k(   12) = (   0.5000000   0.0000000   0.4000000), wk =   0.0188679
        k(   13) = (   0.5000000   0.0000000   0.3000000), wk =   0.0188679
        k(   14) = (   0.5000000   0.0000000   0.2000000), wk =   0.0188679
        k(   15) = (   0.5000000   0.0000000   0.1000000), wk =   0.0188679
        k(   16) = (   0.5000000   0.0000000   0.0000000), wk =   0.0188679
        k(   17) = (   0.4545455   0.0000000   0.0000000), wk =   0.0188679
        k(   18) = (   0.4090909  -0.0000000   0.0000000), wk =   0.0188679
        k(   19) = (   0.3636364  -0.0000000   0.0000000), wk =   0.0188679
        k(   20) = (   0.3181818  -0.0000000   0.0000000), wk =   0.0188679
        k(   21) = (   0.2727273   0.0000000   0.0000000), wk =   0.0188679
        k(   22) = (   0.2272727   0.0000000   0.0000000), wk =   0.0188679
        k(   23) = (   0.1818182  -0.0000000   0.0000000), wk =   0.0188679
        k(   24) = (   0.1363636   0.0000000   0.0000000), wk =   0.0188679
        k(   25) = (   0.0909091  -0.0000000   0.0000000), wk =   0.0188679
        k(   26) = (   0.0454545   0.0000000   0.0000000), wk =   0.0188679
        k(   27) = (   0.0000000   0.0000000   0.0000000), wk =   0.0188679
        k(   28) = (   0.0000000   0.0000000   0.0833333), wk =   0.0188679
        k(   29) = (   0.0000000   0.0000000   0.1666667), wk =   0.0188679
        k(   30) = (   0.0000000   0.0000000   0.2500000), wk =   0.0188679
        k(   31) = (   0.0000000   0.0000000   0.3333333), wk =   0.0188679
        k(   32) = (   0.0000000   0.0000000   0.4166667), wk =   0.0188679
        k(   33) = (   0.0000000   0.0000000   0.5000000), wk =   0.0188679
        k(   34) = (   0.0256410   0.0256410   0.5000000), wk =   0.0188679
        k(   35) = (   0.0512821   0.0512821   0.5000000), wk =   0.0188679
        k(   36) = (   0.0769231   0.0769231   0.5000000), wk =   0.0188679
        k(   37) = (   0.1025641   0.1025641   0.5000000), wk =   0.0188679
        k(   38) = (   0.1282051   0.1282051   0.5000000), wk =   0.0188679
        k(   39) = (   0.1538462   0.1538462   0.5000000), wk =   0.0188679
        k(   40) = (   0.1794872   0.1794872   0.5000000), wk =   0.0188679
        k(   41) = (   0.2051282   0.2051282   0.5000000), wk =   0.0188679
        k(   42) = (   0.2307692   0.2307692   0.5000000), wk =   0.0188679
        k(   43) = (   0.2564103   0.2564103   0.5000000), wk =   0.0188679
        k(   44) = (   0.2820513   0.2820513   0.5000000), wk =   0.0188679
        k(   45) = (   0.3076923   0.3076923   0.5000000), wk =   0.0188679
        k(   46) = (   0.3333333   0.3333333   0.5000000), wk =   0.0188679
        k(   47) = (   0.3333333   0.3333333   0.4285714), wk =   0.0188679
        k(   48) = (   0.3333333   0.3333333   0.3571429), wk =   0.0188679
        k(   49) = (   0.3333333   0.3333333   0.2857143), wk =   0.0188679
        k(   50) = (   0.3333333   0.3333333   0.2142857), wk =   0.0188679
        k(   51) = (   0.3333333   0.3333333   0.1428571), wk =   0.0188679
        k(   52) = (   0.3333333   0.3333333   0.0714286), wk =   0.0188679
        k(   53) = (   0.3333333   0.3333333   0.0000000), wk =   0.0188679

     Dense  grid:    15291 G-vectors     FFT dimensions: (  27,  27,  48)

     Dynamical RAM for                 wfc:       0.38 MB

     Dynamical RAM for     wfc (w. buffer):       0.38 MB

     Dynamical RAM for           str. fact:       0.12 MB

     Dynamical RAM for           local pot:       0.00 MB

     Dynamical RAM for          nlocal pot:       0.45 MB

     Dynamical RAM for                qrad:       2.27 MB

     Dynamical RAM for          rho,v,vnew:       0.75 MB

     Dynamical RAM for           G-vectors:       0.25 MB

     Dynamical RAM for          h,s,v(r/c):       0.50 MB

     Dynamical RAM for          <psi|beta>:       0.05 MB

     Dynamical RAM for                 psi:       0.76 MB

     Dynamical RAM for                hpsi:       0.76 MB

     Dynamical RAM for      wfcinit/wfcrot:       0.82 MB

     Estimated static dynamical RAM per process >       4.80 MB

     Estimated max dynamical RAM per process >       6.86 MB

     Estimated total dynamical RAM >     109.77 MB

     Check: negative core charge=   -0.000270
     Generating pointlists ...
     new r_m :   0.2504 (alat units)  1.5377 (a.u.) for type    1
     new r_m :   0.2504 (alat units)  1.5377 (a.u.) for type    2

     The potential is recalculated from file :
     /scratch/elinscott/materials_cloud_archive/zno/coarse_grid/TMP/kc_bands.save/charge-density

     Starting wfcs are   28 randomized atomic wfcs +   24 random wfcs

     Band Structure Calculation
     Davidson diagonalization with overlap

     Computing kpt #:     1  of    27 on this pool
     total cpu time spent up to now is        0.3 secs

     Computing kpt #:     2  of    27 on this pool
     total cpu time spent up to now is        0.5 secs

     Computing kpt #:     3  of    27 on this pool
     total cpu time spent up to now is        0.7 secs

     Computing kpt #:     4  of    27 on this pool
     total cpu time spent up to now is        0.8 secs

     Computing kpt #:     5  of    27 on this pool
     total cpu time spent up to now is        1.0 secs

     Computing kpt #:     6  of    27 on this pool
     total cpu time spent up to now is        1.2 secs

     Computing kpt #:     7  of    27 on this pool
     total cpu time spent up to now is        1.3 secs

     Computing kpt #:     8  of    27 on this pool
     total cpu time spent up to now is        1.5 secs

     Computing kpt #:     9  of    27 on this pool
     total cpu time spent up to now is        1.7 secs

     Computing kpt #:    10  of    27 on this pool
     total cpu time spent up to now is        1.8 secs

     Computing kpt #:    11  of    27 on this pool
     total cpu time spent up to now is        2.1 secs

     Computing kpt #:    12  of    27 on this pool
     total cpu time spent up to now is        2.4 secs

     Computing kpt #:    13  of    27 on this pool
     total cpu time spent up to now is        2.6 secs

     Computing kpt #:    14  of    27 on this pool
     total cpu time spent up to now is        2.8 secs

     Computing kpt #:    15  of    27 on this pool
     total cpu time spent up to now is        2.9 secs

     Computing kpt #:    16  of    27 on this pool
     total cpu time spent up to now is        3.1 secs

     Computing kpt #:    17  of    27 on this pool
     total cpu time spent up to now is        3.3 secs

     Computing kpt #:    18  of    27 on this pool
     total cpu time spent up to now is        3.5 secs

     Computing kpt #:    19  of    27 on this pool
     total cpu time spent up to now is        3.7 secs

     Computing kpt #:    20  of    27 on this pool
     total cpu time spent up to now is        4.0 secs

     Computing kpt #:    21  of    27 on this pool
     total cpu time spent up to now is        4.2 secs

     Computing kpt #:    22  of    27 on this pool
     total cpu time spent up to now is        4.4 secs

     Computing kpt #:    23  of    27 on this pool
     total cpu time spent up to now is        4.6 secs

     Computing kpt #:    24  of    27 on this pool
     total cpu time spent up to now is        4.8 secs

     Computing kpt #:    25  of    27 on this pool
     total cpu time spent up to now is        5.1 secs

     Computing kpt #:    26  of    27 on this pool
     total cpu time spent up to now is        5.3 secs

     Computing kpt #:    27  of    27 on this pool
     total cpu time spent up to now is        5.4 secs

     ethr =  2.00E-10,  avg # of iterations = 27.2

     total cpu time spent up to now is        5.5 secs

     End of band structure calculation

 ------ SPIN UP ------------


          k = 0.0000 0.0000 0.3121 (  1894 PWs)   bands (ev):

  -116.0073-116.0073 -69.6839 -69.6839 -69.6057 -69.6057 -69.6056 -69.6056
    -7.9774  -7.9774   3.1275   3.1275   3.3590   3.3590   3.3597   3.3597
     4.3711   4.3711   4.3712   4.3712   6.9798   6.9798   9.1065   9.1065
     9.1073   9.1073  12.7546  12.7546  19.2278  19.2278  22.3086  22.3086
    22.3109  22.3109  27.3095  27.3095  29.5448  29.5448  29.5463  29.5463
    33.7326  33.7326  34.2933  34.2933  34.2946  34.2946  37.7018  37.7018
    41.1771  41.1771  41.1784  41.1784

          k = 0.0500 0.0289 0.3121 (  1900 PWs)   bands (ev):

  -116.0073-116.0073 -69.6811 -69.6811 -69.6159 -69.6159 -69.6147 -69.6147
    -7.9662  -7.9662   3.1118   3.1118   3.3521   3.3521   3.3527   3.3527
     4.3635   4.3635   4.3806   4.3806   6.9739   6.9739   9.0176   9.0176
     9.0699   9.0699  12.8419  12.8419  19.2208  19.2208  22.1179  22.1179
    22.3325  22.3325  27.4438  27.4438  29.5414  29.5414  29.5443  29.5443
    33.3406  33.3406  34.3809  34.3809  34.8132  34.8132  37.8950  37.8950
    41.0550  41.0550  41.1841  41.1841

          k = 0.1000 0.0577 0.3121 (  1896 PWs)   bands (ev):

  -116.0073-116.0073 -69.6695 -69.6695 -69.6122 -69.6122 -69.6114 -69.6114
    -7.9329  -7.9329   3.0987   3.0987   3.3724   3.3724   3.3888   3.3888
     4.3799   4.3799   4.4051   4.4051   6.9704   6.9704   8.8070   8.8070
     8.9934   8.9934  13.0777  13.0777  19.1904  19.1904  21.6850  21.6850
    22.4099  22.4099  27.5158  27.5158  29.5698  29.5698  29.8243  29.8243
    32.9028  32.9028  34.6454  34.6454  35.5964  35.5964  38.3991  38.3991
    40.7923  40.7923  41.2258  41.2258

          k = 0.1500 0.0866 0.3121 (  1914 PWs)   bands (ev):

  -116.0073-116.0073 -69.6741 -69.6741 -69.6407 -69.6407 -69.6290 -69.6290
    -7.8813  -7.8813   3.0546   3.0546   3.3813   3.3813   3.3872   3.3872
     4.3698   4.3698   4.3941   4.3941   6.9098   6.9098   8.5071   8.5071
     8.8441   8.8441  13.3944  13.3944  19.0947  19.0947  21.2206  21.2206
    22.5092  22.5092  27.1722  27.1722  29.6377  29.6377  30.6025  30.6025
    32.6126  32.6126  35.0107  35.0107  36.3846  36.3846  38.9210  38.9210
    40.6644  40.6644  41.2779  41.2779

          k = 0.2000 0.1155 0.3121 (  1922 PWs)   bands (ev):

  -116.0073-116.0073 -69.6714 -69.6714 -69.6601 -69.6601 -69.6331 -69.6331
    -7.8148  -7.8148   3.0231   3.0231   3.4256   3.4256   3.4327   3.4327
     4.3724   4.3724   4.3780   4.3780   6.7877   6.7877   8.2454   8.2454
     8.6696   8.6696  13.7436  13.7436  18.8919  18.8919  20.8906  20.8906
    22.6322  22.6322  26.6413  26.6413  29.8082  29.8082  31.3795  31.3795
    32.7315  32.7315  35.4273  35.4273  37.0626  37.0626  39.1291  39.1291
    41.0268  41.0268  41.3858  41.3858

          k = 0.2500 0.1443 0.3121 (  1918 PWs)   bands (ev):

  -116.0073-116.0073 -69.6750 -69.6750 -69.6450 -69.6450 -69.6282 -69.6282
    -7.7399  -7.7399   2.9981   2.9981   3.4887   3.4887   3.5049   3.5049
     4.3900   4.3900   4.4142   4.4142   6.5811   6.5811   8.0822   8.0822
     8.4959   8.4959  14.0850  14.0850  18.6069  18.6069  20.7238  20.7238
    22.7464  22.7464  26.1398  26.1398  30.0982  30.0982  31.5128  31.5128
    33.6130  33.6130  35.8211  35.8211  37.4453  37.4453  39.3658  39.3658
    41.5459  41.5459  41.6435  41.6435

          k = 0.3000 0.1732 0.3121 (  1918 PWs)   bands (ev):

  -116.0072-116.0072 -69.6695 -69.6695 -69.6464 -69.6464 -69.6260 -69.6260
    -7.6633  -7.6633   2.9852   2.9852   3.5610   3.5610   3.5637   3.5637
     4.4076   4.4076   4.4508   4.4508   6.2780   6.2780   8.0127   8.0127
     8.3048   8.3048  14.3806  14.3806  18.3032  18.3032  20.6437  20.6437
    22.8436  22.8436  25.7562  25.7562  30.5081  30.5081  31.3938  31.3938
    34.5272  34.5272  36.0944  36.0944  37.7021  37.7021  39.8982  39.8982
    41.7270  41.7270  42.3185  42.3185

          k = 0.3500 0.2021 0.3121 (  1924 PWs)   bands (ev):

  -116.0072-116.0072 -69.6737 -69.6737 -69.6524 -69.6524 -69.6321 -69.6321
    -7.5939  -7.5939   2.9752   2.9752   3.6136   3.6136   3.6337   3.6337
     4.4074   4.4074   4.4708   4.4708   5.9274   5.9274   8.0038   8.0038
     8.1327   8.1327  14.6167  14.6167  18.0394  18.0394  20.5778  20.5778
    22.9075  22.9075  25.5261  25.5261  31.0098  31.0098  31.2401  31.2401
    34.8730  34.8730  36.1682  36.1682  38.3605  38.3605  40.4958  40.4958
    41.8582  41.8582  43.1189  43.1189

          k = 0.4000 0.2309 0.3121 (  1928 PWs)   bands (ev):

  -116.0072-116.0072 -69.6684 -69.6684 -69.6581 -69.6581 -69.6410 -69.6410
    -7.5376  -7.5376   2.9808   2.9808   3.6551   3.6551   3.7105   3.7105
     4.4145   4.4145   4.5024   4.5024   5.6069   5.6069   7.9922   7.9922
     8.0043   8.0043  14.7873  14.7873  17.8519  17.8519  20.5083  20.5083
    22.9384  22.9384  25.4353  25.4353  31.1089  31.1089  31.5575  31.5575
    34.7826  34.7826  36.0508  36.0508  39.2363  39.2363  41.1657  41.1657
    41.8642  41.8642  44.0070  44.0070

          k = 0.4500 0.2598 0.3121 (  1918 PWs)   bands (ev):

  -116.0072-116.0072 -69.6608 -69.6608 -69.6420 -69.6420 -69.6328 -69.6328
    -7.5002  -7.5002   3.0082   3.0082   3.6827   3.6827   3.8109   3.8109
     4.4230   4.4230   4.5718   4.5718   5.3812   5.3812   7.9067   7.9067
     8.0244   8.0244  14.8915  14.8915  17.7526  17.7526  20.4584  20.4584
    22.9627  22.9627  25.4275  25.4275  31.0203  31.0203  32.0134  32.0134
    34.6216  34.6216  35.8387  35.8387  39.7864  39.7864  41.7969  41.7969
    42.0402  42.0402  44.5146  44.5146

          k = 0.5000 0.2887 0.3121 (  1924 PWs)   bands (ev):

  -116.0072-116.0072 -69.6668 -69.6668 -69.6471 -69.6471 -69.6424 -69.6424
    -7.4877  -7.4877   3.0017   3.0017   3.6890   3.6890   3.8098   3.8098
     4.4245   4.4245   4.5849   4.5849   5.2718   5.2718   7.8728   7.8728
     8.0303   8.0303  14.9218  14.9218  17.7187  17.7187  20.4344  20.4344
    22.9668  22.9668  25.4237  25.4237  30.9787  30.9787  32.2019  32.2019
    34.5460  34.5460  35.7288  35.7288  39.9236  39.9236  41.7587  41.7587
    42.5702  42.5702  44.4236  44.4236

          k = 0.5000 0.2887 0.2497 (  1924 PWs)   bands (ev):

  -116.0072-116.0072 -69.6644 -69.6639 -69.6608 -69.6473 -69.6402 -69.6357
    -7.5258  -7.4511   2.9965   3.0616   3.6317   3.7211   3.8193   3.8516
     4.4033   4.4153   4.5354   4.6119   5.2307   5.3459   7.6458   7.7126
     8.0908   8.2421  14.7090  15.2451  17.5850  17.7886  19.9913  21.0275
    22.8178  23.1186  24.5231  26.4798  30.5814  31.1265  31.3528  33.1624
    33.9774  35.1596  35.5366  35.9754  39.5492  40.1142  41.2962  42.1093
    42.3482  42.4079  43.5944  45.6803

          k = 0.5000 0.2887 0.1873 (  1924 PWs)   bands (ev):

  -116.0072-116.0072 -69.6696 -69.6626 -69.6492 -69.6453 -69.6450 -69.6419
    -7.5630  -7.4206   3.0135   3.1466   3.5754   3.8031   3.8296   3.8568
     4.4179   4.4665   4.4779   4.6120   5.1916   5.4433   7.3139   7.4516
     8.2827   8.2872  14.6582  15.5921  17.4025  17.7852  19.7728  21.5942
    22.6807  23.2751  23.9576  27.4473  30.3057  30.6651  30.6954  33.7495
    34.2399  35.4341  35.6053  36.2643  39.1745  39.3967  40.8716  42.0291
    42.2631  42.2810  43.9896  45.0490

          k = 0.5000 0.2887 0.1248 (  1928 PWs)   bands (ev):

  -116.0072-116.0072 -69.6724 -69.6637 -69.6618 -69.6559 -69.6555 -69.6391
    -7.5928  -7.3982   3.0371   3.2570   3.5275   3.8402   3.8674   3.8819
     4.3961   4.3983   4.4451   4.6427   5.1977   5.5204   6.9036   7.2694
     8.2453   8.4485  14.7602  15.8795  17.1862  17.7300  19.7559  21.8133
    22.5723  23.3893  24.0430  27.9256  29.7854  30.1467  30.6308  33.8400
    35.0879  35.5752  35.6484  36.5481  38.2487  38.9083  40.5424  42.1622
    42.2032  42.3747  44.0543  44.1185

          k = 0.5000 0.2887 0.0624 (  1920 PWs)   bands (ev):

  -116.0072-116.0072 -69.6692 -69.6574 -69.6552 -69.6474 -69.6376 -69.6372
    -7.6123  -7.3838   3.0776   3.3574   3.5095   3.8847   3.9096   3.9337
     4.3672   4.3967   4.4669   4.6689   5.2516   5.6010   6.5957   7.1589
     8.1529   8.5514  14.9237  16.0618  16.9849  17.6763  19.8355  21.7213
    22.5094  23.4709  24.6352  27.9065  28.8317  29.8383  31.6125  33.9898
    34.9766  35.2159  36.3100  36.7688  37.6917  38.7462  40.4485  41.9575
    42.4289  42.5432  42.6570  43.8536

          k = 0.5000 0.2887 0.0000 (  1906 PWs)   bands (ev):

  -116.0072-116.0071 -69.6468 -69.6450 -69.6425 -69.6307 -69.6261 -69.6201
    -7.6185  -7.3782   3.1045   3.4157   3.5192   3.9058   3.9695   3.9787
     4.3219   4.4391   4.5436   4.6888   5.3000   5.6410   6.4630   7.1428
     8.1095   8.6000  15.0074  16.1301  16.9048  17.6505  19.8879  21.6621
    22.4932  23.5185  25.0046  27.8471  28.3676  29.7448  32.3534  34.0585
    34.2762  35.2333  36.6792  36.8583  37.6082  38.6843  40.5816  41.8747
    42.0065  42.5217  42.6303  43.7141

          k = 0.4545 0.2624 0.0000 (  1916 PWs)   bands (ev):

  -116.0072-116.0072 -69.6567 -69.6558 -69.6488 -69.6473 -69.6346 -69.6327
    -7.6409  -7.3772   3.0772   3.3962   3.5049   3.8929   3.9220   3.9512
     4.3132   4.3860   4.5233   4.7222   5.2426   5.6981   6.4691   7.1587
     8.1717   8.6051  14.8186  16.2788  16.9068  17.6743  19.9130  21.6204
    22.5088  23.4820  25.0137  27.8241  28.4133  29.5606  32.3880  33.8537
    34.5879  35.3139  36.6761  36.8109  37.6654  38.5988  40.2789  40.9180
    41.7585  42.1344  43.2349  43.4976

          k = 0.4091 0.2362 0.0000 (  1922 PWs)   bands (ev):

  -116.0073-116.0072 -69.6737 -69.6638 -69.6546 -69.6513 -69.6361 -69.6333
    -7.6995  -7.3770   3.0484   3.3918   3.4889   3.8162   3.8567   3.9526
     4.2563   4.3577   4.5190   4.7754   5.2406   5.7739   6.5458   7.2487
     8.3014   8.6587  14.4093  16.5822  16.9160  17.7491  19.9987  21.5615
    22.5607  23.4286  25.0273  27.7372  28.5831  29.1003  32.4861  33.7288
    34.9434  35.4550  36.5472  36.8808  37.8481  38.3629  39.0174  40.5723
    40.9121  41.3212  42.3677  44.8860

          k = 0.3636 0.2099 0.0000 (  1916 PWs)   bands (ev):

  -116.0072-116.0072 -69.6705 -69.6665 -69.6505 -69.6462 -69.6284 -69.6104
    -7.7821  -7.3853   3.0264   3.3864   3.4861   3.7362   3.8548   3.9956
     4.2039   4.3609   4.4953   4.7728   5.2824   5.8854   6.7510   7.4103
     8.4900   8.7756  13.9309  16.7727  16.9939  17.9162  20.1189  21.5727
    22.6343  23.3703  25.0226  27.6017  28.4980  28.8928  32.6187  33.7777
    35.0555  35.4236  36.2242  37.0986  37.8914  38.0738  38.1339  39.3200
    39.9096  41.4460  42.0059  45.0692

          k = 0.3182 0.1837 0.0000 (  1914 PWs)   bands (ev):

  -116.0073-116.0072 -69.6889 -69.6641 -69.6504 -69.6357 -69.6206 -69.6041
    -7.8790  -7.4030   3.0054   3.3916   3.4713   3.6542   3.7769   4.0196
     4.1301   4.3532   4.4907   4.7664   5.2353   6.1624   7.0057   7.5983
     8.6909   8.8860  13.4082  16.6413  17.2299  18.1869  20.3006  21.7566
    22.6666  23.3463  24.9526  27.4937  27.8741  29.3036  32.7026  33.8961
    34.7386  35.1877  35.4374  37.0562  37.3758  37.8188  37.8535  39.0827
    39.1781  40.7211  42.8334  43.4090

          k = 0.2727 0.1575 0.0000 (  1914 PWs)   bands (ev):

  -116.0073-116.0072 -69.6755 -69.6568 -69.6516 -69.6447 -69.6328 -69.6075
    -7.9817  -7.4296   3.0439   3.3716   3.4341   3.5761   3.6610   3.9571
     4.1479   4.3278   4.5059   4.7714   5.0822   6.5676   7.3379   7.7877
     8.8752   8.9994  12.8685  16.3638  17.4059  18.5859  20.5867  22.1299
    22.6103  23.3893  24.8123  27.3000  27.4581  29.7831  32.6210  33.7495
    34.0632  34.2773  34.9886  36.2306  37.4447  37.6096  37.9959  38.2481
    39.7037  40.3526  41.9526  43.7256

          k = 0.2273 0.1312 0.0000 (  1902 PWs)   bands (ev):

  -116.0073-116.0071 -69.6441 -69.6422 -69.6403 -69.6319 -69.6211 -69.6188
    -8.0819  -7.4612   3.0845   3.3832   3.3879   3.5373   3.6142   3.9268
     4.1979   4.2951   4.5007   4.7948   4.9375   7.0286   7.7383   8.0168
     9.0513   9.1262  12.3398  15.9696  17.5116  19.1172  21.0009  22.4930
    22.6299  23.4755  24.6591  26.8593  27.5126  30.2335  32.2394  32.9200
    33.1641  33.4558  34.7515  36.0588  37.2136  37.3513  37.7527  38.3501
    39.4937  40.8392  41.0420  44.5638

          k = 0.1818 0.1050 0.0000 (  1898 PWs)   bands (ev):

  -116.0073-116.0071 -69.6471 -69.6395 -69.6386 -69.6273 -69.6151 -69.6130
    -8.1734  -7.4953   3.1316   3.3561   3.3886   3.4627   3.5549   3.8581
     4.2325   4.2975   4.5040   4.7638   4.8577   7.4866   8.0957   8.2221
     9.1819   9.2510  11.7995  15.5146  17.5618  19.7406  21.5190  22.3490
    23.1243  23.5274  24.6161  26.6470  27.5961  30.2946  31.5705  32.0876
    32.1371  32.8795  34.5722  35.9071  36.4717  37.4903  37.8328  38.7958
    38.9763  40.2688  41.8740  45.2173

          k = 0.1364 0.0787 0.0000 (  1900 PWs)   bands (ev):

  -116.0073-116.0072 -69.6526 -69.6459 -69.6347 -69.6330 -69.6174 -69.6130
    -8.2504  -7.5266   3.1637   3.3092   3.3940   3.4265   3.5186   3.7903
     4.2482   4.2886   4.4664   4.6293   4.8603   7.9421   8.4067   8.4567
     9.2930   9.3452  11.2759  15.0591  17.5823  20.4333  22.0901  22.2115
    23.3751  23.4939  24.8985  26.6800  27.6449  29.6879  30.8636  31.0832
    31.4936  32.8877  34.4452  34.6858  36.8790  37.7791  37.8641  38.3481
    39.2942  39.9941  42.7590  45.3840

          k = 0.0909 0.0525 0.0000 (  1882 PWs)   bands (ev):

  -116.0073-116.0071 -69.6348 -69.6302 -69.6133 -69.6098 -69.5994 -69.5967
    -8.3085  -7.5511   3.2215   3.2996   3.4069   3.4562   3.4953   3.7542
     4.2994   4.3041   4.4803   4.5890   4.9270   8.3430   8.5635   8.8478
     9.3860   9.4316  10.7792  14.6705  17.6002  21.1475  22.1083  22.6690
    23.3671  23.4069  25.4216  26.9408  27.5479  29.1190  30.1272  30.1924
    30.9101  33.1746  33.7507  34.3631  37.3485  37.6946  37.8597  38.0327
    39.8060  40.0319  43.5804  44.7212

          k = 0.0455 0.0262 0.0000 (  1894 PWs)   bands (ev):

  -116.0074-116.0072 -69.6429 -69.6377 -69.6322 -69.6240 -69.6146 -69.6078
    -8.3453  -7.5670   3.2358   3.2659   3.4027   3.4241   3.4306   3.7272
     4.2770   4.2870   4.4114   4.4735   4.9798   8.5904   8.6472   9.2208
     9.4228   9.4689  10.3137  14.4018  17.5936  21.7442  22.0347  23.1057
    23.2811  23.3152  25.7070  27.3013  27.4537  28.9041  29.4488  29.5483
    30.4310  32.5560  34.0432  34.2890  37.1021  37.6810  37.8320  38.1203
    40.2328  40.2672  44.1148  44.1177

          k = 0.0000 0.0000 0.0000 (  1907 PWs)   bands (ev):

  -116.0074-116.0072 -69.6644 -69.6578 -69.6577 -69.6259 -69.6258 -69.6120
    -8.3578  -7.5735   3.2334   3.2342   3.3989   3.4275   3.4279   3.7109
     4.2622   4.2625   4.3675   4.3677   4.9619   8.6561   8.6573   9.4359
     9.4569   9.4569  10.0390  14.3047  17.5743  22.0018  22.0030  23.2312
    23.2786  23.2820  25.7032  27.5091  27.5105  29.0412  29.1147  29.1158
    30.2634  32.2350  34.2643  34.2679  36.8269  37.8225  37.8247  38.1090
    40.4063  40.4088  43.8498  43.8525

          k = 0.0000 0.0000 0.0520 (  1900 PWs)   bands (ev):

  -116.0074-116.0072 -69.6723 -69.6326 -69.6325 -69.6229 -69.6189 -69.6188
    -8.3450  -7.5871   3.2582   3.2590   3.3636   3.4275   3.4279   3.6491
     4.2783   4.2785   4.3917   4.3920   5.0342   8.7073   8.7085   9.1854
     9.4682   9.4683  10.3119  14.2547  17.6382  22.0114  22.0127  22.9463
    23.2248  23.2282  25.8007  27.5882  27.5896  28.9850  29.2092  29.2104
    30.5703  32.2207  34.1730  34.1765  36.9960  37.6946  37.6969  37.9219
    40.4592  40.4616  43.3463  43.3477

          k = 0.0000 0.0000 0.1040 (  1900 PWs)   bands (ev):

  -116.0074-116.0072 -69.6844 -69.6604 -69.6253 -69.6252 -69.6075 -69.6074
    -8.3088  -7.6287   3.2701   3.2728   3.2736   3.4193   3.4197   3.4972
     4.2645   4.2646   4.4676   4.4677   5.2914   8.6959   8.7559   8.7571
     9.4336   9.4338  10.7487  14.1216  17.7505  22.0143  22.0157  22.2585
    23.0910  23.0942  26.0063  27.8016  27.8031  28.8192  29.4593  29.4603
    31.3927  32.2449  33.9269  33.9301  37.2911  37.2935  37.4445  37.4652
    40.5833  40.5856  42.5828  42.5831

          k = 0.0000 0.0000 0.1561 (  1882 PWs)   bands (ev):

  -116.0073-116.0071 -69.6671 -69.6460 -69.6011 -69.6011 -69.5975 -69.5974
    -8.2490  -7.6933   3.2318   3.3088   3.3095   3.3660   3.4365   3.4370
     4.3234   4.3235   4.4863   4.4865   5.6703   8.2794   8.8354   8.8365
     9.3897   9.3901  11.2529  13.8967  17.9615  21.4567  22.0450  22.0466
    22.8984  22.9015  26.2701  28.1671  28.1687  28.5349  29.7706  29.7713
    32.4038  32.5174  33.6587  33.6611  36.6761  36.6785  36.8519  38.0717
    40.7465  40.7485  41.9939  41.9943

          k = 0.0000 0.0000 0.2081 (  1882 PWs)   bands (ev):

  -116.0073-116.0072 -69.6649 -69.6493 -69.6005 -69.6005 -69.6003 -69.6002
    -8.1707  -7.7776   3.1895   3.2669   3.3212   3.3219   3.4105   3.4110
     4.3493   4.3494   4.4610   4.4611   6.0819   7.8505   8.9208   8.9218
     9.3091   9.3095  11.7668  13.5848  18.2719  20.6448  22.0937  22.0955
    22.6832  22.6860  26.5731  28.1544  28.6019  28.6035  29.9580  29.9581
    32.7411  33.5344  33.5356  33.6352  35.8954  35.8977  36.3865  38.5658
    40.9015  40.9033  41.6029  41.6037

          k = 0.0000 0.0000 0.2601 (  1900 PWs)   bands (ev):

  -116.0073-116.0073 -69.7131 -69.6683 -69.6193 -69.6193 -69.6036 -69.6035
    -8.0782  -7.8760   3.1284   3.1579   3.3256   3.3263   3.3763   3.3769
     4.3580   4.3580   4.3611   4.3613   6.4868   7.4190   9.0050   9.0059
     9.2092   9.2098  12.2714  13.1871  18.6845  19.8935  22.1777  22.1797
    22.4733  22.4758  26.9217  27.7220  29.0815  29.0832  29.8711  29.8721
    33.1934  33.7232  33.7235  34.0863  35.0565  35.0584  36.6639  38.5286
    41.0287  41.0302  41.3478  41.3489

          k = 0.0000 0.0000 0.3121 (  1894 PWs)   bands (ev):

  -116.0073-116.0073 -69.6839 -69.6839 -69.6057 -69.6057 -69.6056 -69.6056
    -7.9774  -7.9774   3.1275   3.1275   3.3590   3.3590   3.3597   3.3597
     4.3711   4.3711   4.3712   4.3712   6.9798   6.9798   9.1065   9.1065
     9.1073   9.1073  12.7546  12.7546  19.2278  19.2278  22.3086  22.3086
    22.3109  22.3109  27.3095  27.3095  29.5448  29.5448  29.5463  29.5463
    33.7326  33.7326  34.2933  34.2933  34.2946  34.2946  37.7018  37.7018
    41.1771  41.1771  41.1784  41.1784

          k = 0.0256 0.0444 0.3121 (  1900 PWs)   bands (ev):

  -116.0073-116.0073 -69.6824 -69.6824 -69.6158 -69.6158 -69.6144 -69.6144
    -7.9686  -7.9686   3.1146   3.1146   3.3419   3.3419   3.3599   3.3599
     4.3541   4.3541   4.3811   4.3811   6.9762   6.9762   9.0334   9.0334
     9.0804   9.0804  12.8235  12.8235  19.2225  19.2225  22.1560  22.1560
    22.3257  22.3257  27.4216  27.4216  29.5089  29.5089  29.5700  29.5700
    33.3955  33.3955  34.3559  34.3559  34.7339  34.7339  37.8551  37.8551
    41.0764  41.0764  41.1837  41.1837

          k = 0.0513 0.0888 0.3121 (  1896 PWs)   bands (ev):

  -116.0073-116.0073 -69.6671 -69.6671 -69.6154 -69.6154 -69.6121 -69.6121
    -7.9422  -7.9422   3.1089   3.1089   3.3551   3.3551   3.3864   3.3864
     4.3743   4.3743   4.4066   4.4066   6.9747   6.9747   8.8585   8.8585
     9.0185   9.0185  13.0149  13.0149  19.2039  19.2039  21.7932  21.7932
    22.3844  22.3844  27.5574  27.5574  29.3959  29.3959  29.8567  29.8567
    33.0161  33.0161  34.5177  34.5177  35.4453  35.4453  38.2754  38.2754
    40.8391  40.8391  41.2229  41.2229

          k = 0.0769 0.1332 0.3121 (  1908 PWs)   bands (ev):

  -116.0073-116.0073 -69.6781 -69.6781 -69.6391 -69.6391 -69.6100 -69.6100
    -7.9005  -7.9005   3.0685   3.0685   3.3578   3.3578   3.4079   3.4079
     4.3818   4.3818   4.4008   4.4008   6.9245   6.9245   8.6058   8.6058
     8.8906   8.8906  13.2813  13.2813  19.1401  19.1401  21.3692  21.3692
    22.4560  22.4560  27.4644  27.4644  29.1972  29.1972  30.5898  30.5898
    32.7906  32.7906  34.6931  34.6931  36.1933  36.1933  38.8225  38.8225
    40.5768  40.5768  41.3290  41.3290

          k = 0.1026 0.1776 0.3121 (  1910 PWs)   bands (ev):

  -116.0073-116.0073 -69.6759 -69.6759 -69.6446 -69.6446 -69.6087 -69.6087
    -7.8457  -7.8457   3.0434   3.0434   3.3830   3.3830   3.4552   3.4552
     4.3731   4.3731   4.4231   4.4231   6.8597   6.8597   8.3859   8.3859
     8.7248   8.7248  13.6038  13.6038  19.0191  19.0191  21.0023  21.0023
    22.5204  22.5204  27.2529  27.2529  28.9653  28.9653  31.6014  31.6014
    32.8104  32.8104  34.8344  34.8344  36.8348  36.8348  39.3241  39.3241
    40.4364  40.4364  41.5898  41.5898

          k = 0.1282 0.2221 0.3121 (  1926 PWs)   bands (ev):

  -116.0073-116.0073 -69.6926 -69.6926 -69.6615 -69.6615 -69.6228 -69.6228
    -7.7824  -7.7824   3.0004   3.0004   3.3966   3.3966   3.5095   3.5095
     4.3572   4.3572   4.3855   4.3855   6.7173   6.7173   8.1884   8.1884
     8.5160   8.5160  13.9414  13.9414  18.8284  18.8284  20.7127  20.7127
    22.5589  22.5589  27.0238  27.0238  28.7793  28.7793  32.3146  32.3146
    33.4246  33.4246  34.9226  34.9226  37.2011  37.2011  39.6527  39.6527
    40.4859  40.4859  42.1143  42.1143

          k = 0.1538 0.2665 0.3121 (  1926 PWs)   bands (ev):

  -116.0073-116.0073 -69.6923 -69.6923 -69.6548 -69.6548 -69.6251 -69.6251
    -7.7134  -7.7134   3.0039   3.0039   3.4290   3.4290   3.5641   3.5641
     4.3606   4.3606   4.4240   4.4240   6.5309   6.5309   8.0579   8.0579
     8.3004   8.3004  14.2951  14.2951  18.6128  18.6128  20.4669  20.4669
    22.6134  22.6134  26.8227  26.8227  28.7306  28.7306  32.5619  32.5619
    34.5501  34.5501  35.0427  35.0427  37.3721  37.3721  39.8505  39.8505
    40.6779  40.6779  42.9462  42.9462

          k = 0.1795 0.3109 0.3121 (  1916 PWs)   bands (ev):

  -116.0072-116.0072 -69.6670 -69.6670 -69.6457 -69.6457 -69.6252 -69.6252
    -7.6444  -7.6444   3.0294   3.0294   3.4750   3.4750   3.6385   3.6385
     4.3863   4.3863   4.4935   4.4935   6.3090   6.3090   7.8938   7.8938
     8.1619   8.1619  14.6646  14.6646  18.4096  18.4096  20.1878  20.1878
    22.7330  22.7330  26.6182  26.6182  28.8382  28.8382  32.7114  32.7114
    34.7121  34.7121  35.9750  35.9750  37.7164  37.7164  39.9424  39.9424
    40.9528  40.9528  43.9118  43.9118

          k = 0.2051 0.3553 0.3121 (  1918 PWs)   bands (ev):

  -116.0072-116.0072 -69.6625 -69.6625 -69.6492 -69.6492 -69.6300 -69.6300
    -7.5805  -7.5805   3.0707   3.0707   3.5100   3.5100   3.6836   3.6836
     4.3838   4.3838   4.5319   4.5319   6.0666   6.0666   7.6249   7.6249
     8.1308   8.1308  15.0409  15.0409  18.2342  18.2342  19.8373  19.8373
    22.9401  22.9401  26.3981  26.3981  29.0347  29.0347  32.7600  32.7600
    34.5752  34.5752  36.6207  36.6207  38.6950  38.6950  40.0036  40.0036
    41.2411  41.2411  44.1627  44.1627

          k = 0.2308 0.3997 0.3121 (  1922 PWs)   bands (ev):

  -116.0072-116.0072 -69.6663 -69.6663 -69.6451 -69.6451 -69.6392 -69.6392
    -7.5253  -7.5253   3.1179   3.1179   3.5456   3.5456   3.7179   3.7179
     4.3977   4.3977   4.5903   4.5903   5.8096   5.8096   7.3259   7.3259
     8.1411   8.1411  15.4387  15.4387  18.0915  18.0915  19.4161  19.4161
    23.2458  23.2458  26.1800  26.1800  29.2069  29.2069  32.6937  32.6937
    34.5351  34.5351  36.8876  36.8876  39.6864  39.6864  40.3441  40.3441
    41.6952  41.6952  43.8201  43.8201

          k = 0.2564 0.4441 0.3121 (  1926 PWs)   bands (ev):

  -116.0072-116.0072 -69.6658 -69.6658 -69.6533 -69.6533 -69.6438 -69.6438
    -7.4822  -7.4822   3.1780   3.1780   3.5524   3.5524   3.7975   3.7975
     4.3386   4.3386   4.6657   4.6657   5.6116   5.6116   7.0381   7.0381
     8.1583   8.1583  15.8541  15.8541  17.9848  17.9848  18.9605  18.9605
    23.6367  23.6367  25.9555  25.9555  29.2223  29.2223  32.6166  32.6166
    34.6606  34.6606  36.9845  36.9845  39.9072  39.9072  40.9378  40.9378
    42.6831  42.6831  43.7350  43.7350

          k = 0.2821 0.4885 0.3121 (  1924 PWs)   bands (ev):

  -116.0072-116.0072 -69.6592 -69.6592 -69.6536 -69.6536 -69.6445 -69.6445
    -7.4517  -7.4517   3.2367   3.2367   3.5430   3.5430   3.8846   3.8846
     4.3166   4.3166   4.7403   4.7403   5.4700   5.4700   6.8002   6.8002
     8.1791   8.1791  16.2977  16.2977  17.8772  17.8772  18.5104  18.5104
    24.0919  24.0919  25.7091  25.7091  29.0653  29.0653  32.6687  32.6687
    34.8648  34.8648  36.9072  36.9072  40.0633  40.0633  41.2165  41.2165
    43.4094  43.4094  44.4129  44.4129

          k = 0.3077 0.5329 0.3121 (  1920 PWs)   bands (ev):

  -116.0072-116.0072 -69.6583 -69.6583 -69.6459 -69.6459 -69.6419 -69.6419
    -7.4345  -7.4345   3.2953   3.2953   3.5203   3.5203   3.9620   3.9620
     4.2911   4.2911   4.8067   4.8067   5.3959   5.3959   6.6342   6.6342
     8.1874   8.1874  16.7683  16.7683  17.6725  17.6725  18.1784  18.1784
    24.5689  24.5689  25.4134  25.4134  28.8499  28.8499  32.8062  32.8062
    35.0687  35.0687  36.6978  36.6978  40.2791  40.2791  41.3644  41.3644
    43.7006  43.7006  44.5569  44.5569

          k = 0.3333 0.5774 0.3121 (  1908 PWs)   bands (ev):

  -116.0072-116.0072 -69.6621 -69.6621 -69.6233 -69.6233 -69.6232 -69.6232
    -7.4279  -7.4279   3.3330   3.3330   3.5212   3.5212   3.9903   3.9903
     4.3202   4.3202   4.8598   4.8598   5.3840   5.3840   6.5714   6.5714
     8.2030   8.2030  17.1642  17.1642  17.3683  17.3683  18.0864  18.0864
    24.9562  24.9562  25.1072  25.1072  28.7521  28.7521  32.8856  32.8856
    35.1528  35.1528  36.5793  36.5793  40.4367  40.4367  41.3799  41.3799
    43.7887  43.7887  44.7859  44.7859

          k = 0.3333 0.5774 0.2675 (  1908 PWs)   bands (ev):

  -116.0072-116.0072 -69.6507 -69.6507 -69.6357 -69.6281 -69.6281 -69.6230
    -7.4293  -7.4292   3.3441   3.3441   3.4432   3.6073   4.0088   4.0088
     4.2974   4.3138   4.8450   4.8450   5.3984   5.3985   6.3486   6.8095
     8.1650   8.1653  17.1377  17.1382  17.3037  17.4158  18.1767  18.1775
    24.2805  25.0057  25.0060  25.7110  28.8514  28.8515  32.7688  33.0245
    35.1221  35.1226  36.6531  36.6541  39.7973  40.7321  40.8807  40.8809
    43.8456  44.2061  44.2064  44.9789

          k = 0.3333 0.5774 0.2229 (  1908 PWs)   bands (ev):

  -116.0072-116.0072 -69.6546 -69.6546 -69.6348 -69.6254 -69.6253 -69.6174
    -7.4309  -7.4308   3.3841   3.3846   3.3848   3.7159   4.0077   4.0077
     4.2880   4.3308   4.8229   4.8230   5.4190   5.4192   6.1366   7.0179
     8.0587   8.0591  17.0808  17.0815  17.2373  17.4601  18.4249  18.4262
    23.7036  24.7223  24.7229  26.5424  29.1131  29.1132  32.6649  33.1959
    35.0380  35.0387  36.8420  36.8438  39.1099  39.9281  39.9283  40.2511
    43.7862  44.5481  44.5488  45.5543

          k = 0.3333 0.5774 0.1783 (  1911 PWs)   bands (ev):

  -116.0072-116.0072 -69.6507 -69.6493 -69.6493 -69.6285 -69.6285 -69.6204
    -7.4335  -7.4334   3.3158   3.4465   3.4466   3.8285   4.0519   4.0519
     4.2809   4.2971   4.7673   4.7673   5.4396   5.4399   5.9141   7.1966
     7.9239   7.9246  17.0270  17.0277  17.1596  17.4938  18.7735  18.7750
    23.2154  24.3119  24.3128  27.4322  29.4656  29.4658  32.5601  33.3780
    34.9632  34.9639  37.0393  37.0413  38.4276  38.9853  38.9859  39.2190
    44.3706  44.5445  44.5454  46.3468

          k = 0.3333 0.5774 0.1338 (  1929 PWs)   bands (ev):

  -116.0072-116.0072 -69.6733 -69.6641 -69.6641 -69.6507 -69.6507 -69.6409
    -7.4370  -7.4368   3.2444   3.4948   3.4950   3.8847   4.0667   4.0667
     4.2407   4.2588   4.6603   4.6603   5.4732   5.4735   5.7056   7.3494
     7.7395   7.7403  16.9798  16.9804  17.0792  17.5087  19.1694  19.1711
    22.8221  23.8494  23.8506  28.3459  29.8521  29.8524  32.4265  33.5820
    34.9247  34.9253  37.0101  37.0113  37.8216  38.0939  38.3408  38.3424
    44.4413  44.4422  45.1257  46.7498

          k = 0.3333 0.5774 0.0892 (  1935 PWs)   bands (ev):

  -116.0072-116.0072 -69.6756 -69.6755 -69.6733 -69.6569 -69.6569 -69.6438
    -7.4397  -7.4395   3.2147   3.5430   3.5432   3.9591   4.0884   4.0884
     4.2395   4.2557   4.5972   4.5972   5.5173   5.5177   5.5372   7.4748
     7.5642   7.5652  16.9494  16.9499  17.0224  17.5140  19.5731  19.5748
    22.5558  23.4021  23.4035  29.2524  30.2205  30.2208  32.2310  33.7926
    34.9615  34.9619  36.5348  36.5350  37.1034  37.3330  38.2230  38.2259
    44.3350  44.3360  45.8848  46.8678

          k = 0.3333 0.5774 0.0446 (  1929 PWs)   bands (ev):

  -116.0072-116.0072 -69.6653 -69.6653 -69.6631 -69.6508 -69.6508 -69.6439
    -7.4413  -7.4410   3.2107   3.5971   3.5973   4.0202   4.1517   4.1518
     4.2308   4.2815   4.5477   4.5478   5.4383   5.5598   5.5601   7.4618
     7.4629   7.5568  16.9358  16.9363  16.9883  17.5218  19.9054  19.9071
    22.3992  23.0541  23.0556  30.0497  30.4963  30.4967  31.9571  33.9577
    35.1129  35.1130  35.9449  35.9453  36.4135  37.0026  38.3201  38.3234
    44.2481  44.2490  46.4574  46.9058

          k = 0.3333 0.5774 0.0000 (  1923 PWs)   bands (ev):

  -116.0072-116.0072 -69.6619 -69.6618 -69.6543 -69.6428 -69.6428 -69.6312
    -7.4416  -7.4413   3.2436   3.6087   3.6089   4.0598   4.1913   4.1914
     4.2326   4.3093   4.5228   4.5230   5.4279   5.5787   5.5791   7.4143
     7.4155   7.5836  16.9334  16.9339  16.9798  17.5335  20.0450  20.0467
    22.3551  22.9136  22.9152  30.4542  30.5981  30.5985  31.7568  34.0311
    35.3285  35.3295  35.5668  35.5682  36.1639  36.8945  38.3592  38.3626
    44.2188  44.2197  46.6824  46.9144

 ------ SPIN DOWN ----------


          k = 0.0000 0.0000 0.3121 (  1894 PWs)   bands (ev):

  -116.0073-116.0073 -69.6839 -69.6839 -69.6057 -69.6057 -69.6056 -69.6056
    -7.9774  -7.9774   3.1275   3.1275   3.3590   3.3590   3.3597   3.3597
     4.3711   4.3711   4.3712   4.3712   6.9798   6.9798   9.1065   9.1065
     9.1073   9.1073  12.7546  12.7546  19.2278  19.2278  22.3086  22.3086
    22.3109  22.3109  27.3095  27.3095  29.5448  29.5448  29.5463  29.5463
    33.7326  33.7326  34.2933  34.2933  34.2946  34.2946  37.7018  37.7018
    41.1771  41.1771  41.1784  41.1784

          k = 0.0500 0.0289 0.3121 (  1900 PWs)   bands (ev):

  -116.0073-116.0073 -69.6811 -69.6811 -69.6159 -69.6159 -69.6147 -69.6147
    -7.9662  -7.9662   3.1118   3.1118   3.3521   3.3521   3.3527   3.3527
     4.3635   4.3635   4.3806   4.3806   6.9739   6.9739   9.0176   9.0176
     9.0699   9.0699  12.8419  12.8419  19.2208  19.2208  22.1179  22.1179
    22.3325  22.3325  27.4438  27.4438  29.5414  29.5414  29.5443  29.5443
    33.3406  33.3406  34.3809  34.3809  34.8132  34.8132  37.8950  37.8950
    41.0550  41.0550  41.1841  41.1841

          k = 0.1000 0.0577 0.3121 (  1896 PWs)   bands (ev):

  -116.0073-116.0073 -69.6695 -69.6695 -69.6122 -69.6122 -69.6114 -69.6114
    -7.9329  -7.9329   3.0987   3.0987   3.3724   3.3724   3.3888   3.3888
     4.3799   4.3799   4.4051   4.4051   6.9704   6.9704   8.8070   8.8070
     8.9934   8.9934  13.0777  13.0777  19.1904  19.1904  21.6850  21.6850
    22.4099  22.4099  27.5158  27.5158  29.5698  29.5698  29.8243  29.8243
    32.9028  32.9028  34.6454  34.6454  35.5964  35.5964  38.3991  38.3991
    40.7923  40.7923  41.2258  41.2258

          k = 0.1500 0.0866 0.3121 (  1914 PWs)   bands (ev):

  -116.0073-116.0073 -69.6741 -69.6741 -69.6407 -69.6407 -69.6290 -69.6290
    -7.8813  -7.8813   3.0546   3.0546   3.3813   3.3813   3.3872   3.3872
     4.3698   4.3698   4.3941   4.3941   6.9098   6.9098   8.5071   8.5071
     8.8441   8.8441  13.3944  13.3944  19.0947  19.0947  21.2206  21.2206
    22.5092  22.5092  27.1722  27.1722  29.6377  29.6377  30.6025  30.6025
    32.6126  32.6126  35.0107  35.0107  36.3846  36.3846  38.9210  38.9210
    40.6644  40.6644  41.2779  41.2779

          k = 0.2000 0.1155 0.3121 (  1922 PWs)   bands (ev):

  -116.0073-116.0073 -69.6714 -69.6714 -69.6601 -69.6601 -69.6331 -69.6331
    -7.8148  -7.8148   3.0231   3.0231   3.4256   3.4256   3.4327   3.4327
     4.3724   4.3724   4.3780   4.3780   6.7877   6.7877   8.2454   8.2454
     8.6696   8.6696  13.7436  13.7436  18.8919  18.8919  20.8906  20.8906
    22.6322  22.6322  26.6413  26.6413  29.8082  29.8082  31.3795  31.3795
    32.7315  32.7315  35.4273  35.4273  37.0626  37.0626  39.1291  39.1291
    41.0268  41.0268  41.3858  41.3858

          k = 0.2500 0.1443 0.3121 (  1918 PWs)   bands (ev):

  -116.0073-116.0073 -69.6750 -69.6750 -69.6450 -69.6450 -69.6282 -69.6282
    -7.7399  -7.7399   2.9981   2.9981   3.4887   3.4887   3.5049   3.5049
     4.3900   4.3900   4.4142   4.4142   6.5811   6.5811   8.0822   8.0822
     8.4959   8.4959  14.0850  14.0850  18.6069  18.6069  20.7238  20.7238
    22.7464  22.7464  26.1398  26.1398  30.0982  30.0982  31.5128  31.5128
    33.6130  33.6130  35.8211  35.8211  37.4453  37.4453  39.3658  39.3658
    41.5459  41.5459  41.6435  41.6435

          k = 0.3000 0.1732 0.3121 (  1918 PWs)   bands (ev):

  -116.0072-116.0072 -69.6695 -69.6695 -69.6464 -69.6464 -69.6260 -69.6260
    -7.6633  -7.6633   2.9852   2.9852   3.5610   3.5610   3.5637   3.5637
     4.4076   4.4076   4.4508   4.4508   6.2780   6.2780   8.0127   8.0127
     8.3048   8.3048  14.3806  14.3806  18.3032  18.3032  20.6437  20.6437
    22.8436  22.8436  25.7562  25.7562  30.5081  30.5081  31.3938  31.3938
    34.5272  34.5272  36.0944  36.0944  37.7021  37.7021  39.8982  39.8982
    41.7270  41.7270  42.3185  42.3185

          k = 0.3500 0.2021 0.3121 (  1924 PWs)   bands (ev):

  -116.0072-116.0072 -69.6737 -69.6737 -69.6524 -69.6524 -69.6321 -69.6321
    -7.5939  -7.5939   2.9752   2.9752   3.6136   3.6136   3.6337   3.6337
     4.4074   4.4074   4.4708   4.4708   5.9274   5.9274   8.0038   8.0038
     8.1327   8.1327  14.6167  14.6167  18.0394  18.0394  20.5778  20.5778
    22.9075  22.9075  25.5261  25.5261  31.0098  31.0098  31.2401  31.2401
    34.8730  34.8730  36.1682  36.1682  38.3605  38.3605  40.4958  40.4958
    41.8582  41.8582  43.1189  43.1189

          k = 0.4000 0.2309 0.3121 (  1928 PWs)   bands (ev):

  -116.0072-116.0072 -69.6684 -69.6684 -69.6581 -69.6581 -69.6410 -69.6410
    -7.5376  -7.5376   2.9808   2.9808   3.6551   3.6551   3.7105   3.7105
     4.4145   4.4145   4.5024   4.5024   5.6069   5.6069   7.9922   7.9922
     8.0043   8.0043  14.7873  14.7873  17.8519  17.8519  20.5083  20.5083
    22.9384  22.9384  25.4353  25.4353  31.1089  31.1089  31.5575  31.5575
    34.7826  34.7826  36.0508  36.0508  39.2363  39.2363  41.1657  41.1657
    41.8642  41.8642  44.0070  44.0070

          k = 0.4500 0.2598 0.3121 (  1918 PWs)   bands (ev):

  -116.0072-116.0072 -69.6608 -69.6608 -69.6420 -69.6420 -69.6328 -69.6328
    -7.5002  -7.5002   3.0082   3.0082   3.6827   3.6827   3.8109   3.8109
     4.4230   4.4230   4.5718   4.5718   5.3812   5.3812   7.9067   7.9067
     8.0244   8.0244  14.8915  14.8915  17.7526  17.7526  20.4584  20.4584
    22.9627  22.9627  25.4275  25.4275  31.0203  31.0203  32.0134  32.0134
    34.6216  34.6216  35.8387  35.8387  39.7864  39.7864  41.7969  41.7969
    42.0402  42.0402  44.5146  44.5146

          k = 0.5000 0.2887 0.3121 (  1924 PWs)   bands (ev):

  -116.0072-116.0072 -69.6668 -69.6668 -69.6471 -69.6471 -69.6424 -69.6424
    -7.4877  -7.4877   3.0017   3.0017   3.6890   3.6890   3.8098   3.8098
     4.4245   4.4245   4.5849   4.5849   5.2718   5.2718   7.8728   7.8728
     8.0303   8.0303  14.9218  14.9218  17.7187  17.7187  20.4344  20.4344
    22.9668  22.9668  25.4237  25.4237  30.9787  30.9787  32.2019  32.2019
    34.5460  34.5460  35.7288  35.7288  39.9236  39.9236  41.7587  41.7587
    42.5702  42.5702  44.4236  44.4236

          k = 0.5000 0.2887 0.2497 (  1924 PWs)   bands (ev):

  -116.0072-116.0072 -69.6644 -69.6639 -69.6608 -69.6473 -69.6402 -69.6357
    -7.5258  -7.4511   2.9965   3.0616   3.6317   3.7211   3.8193   3.8516
     4.4033   4.4153   4.5354   4.6119   5.2307   5.3459   7.6458   7.7126
     8.0908   8.2421  14.7090  15.2451  17.5850  17.7886  19.9913  21.0275
    22.8178  23.1186  24.5231  26.4798  30.5814  31.1265  31.3528  33.1624
    33.9774  35.1596  35.5366  35.9754  39.5492  40.1142  41.2962  42.1093
    42.3482  42.4079  43.5944  45.6803

          k = 0.5000 0.2887 0.1873 (  1924 PWs)   bands (ev):

  -116.0072-116.0072 -69.6696 -69.6626 -69.6492 -69.6453 -69.6450 -69.6419
    -7.5630  -7.4206   3.0135   3.1466   3.5754   3.8031   3.8296   3.8568
     4.4179   4.4665   4.4779   4.6120   5.1916   5.4433   7.3139   7.4516
     8.2827   8.2872  14.6582  15.5921  17.4025  17.7852  19.7728  21.5942
    22.6807  23.2751  23.9576  27.4473  30.3057  30.6651  30.6954  33.7495
    34.2399  35.4341  35.6053  36.2643  39.1745  39.3967  40.8716  42.0291
    42.2631  42.2810  43.9896  45.0490

          k = 0.5000 0.2887 0.1248 (  1928 PWs)   bands (ev):

  -116.0072-116.0072 -69.6724 -69.6637 -69.6618 -69.6559 -69.6555 -69.6391
    -7.5928  -7.3982   3.0371   3.2570   3.5275   3.8402   3.8674   3.8819
     4.3961   4.3983   4.4451   4.6427   5.1977   5.5204   6.9036   7.2694
     8.2453   8.4485  14.7602  15.8795  17.1862  17.7300  19.7559  21.8133
    22.5723  23.3893  24.0430  27.9256  29.7854  30.1467  30.6308  33.8400
    35.0879  35.5752  35.6484  36.5481  38.2487  38.9083  40.5424  42.1622
    42.2032  42.3747  44.0543  44.1185

          k = 0.5000 0.2887 0.0624 (  1920 PWs)   bands (ev):

  -116.0072-116.0072 -69.6692 -69.6574 -69.6552 -69.6474 -69.6376 -69.6372
    -7.6123  -7.3838   3.0776   3.3574   3.5095   3.8847   3.9096   3.9337
     4.3672   4.3967   4.4669   4.6689   5.2516   5.6010   6.5957   7.1589
     8.1529   8.5514  14.9237  16.0618  16.9849  17.6763  19.8355  21.7213
    22.5094  23.4709  24.6352  27.9065  28.8317  29.8383  31.6125  33.9898
    34.9766  35.2159  36.3100  36.7688  37.6917  38.7462  40.4485  41.9575
    42.4289  42.5432  42.6570  43.8536

          k = 0.5000 0.2887 0.0000 (  1906 PWs)   bands (ev):

  -116.0072-116.0071 -69.6468 -69.6450 -69.6425 -69.6307 -69.6261 -69.6201
    -7.6185  -7.3782   3.1045   3.4157   3.5192   3.9058   3.9695   3.9787
     4.3219   4.4391   4.5436   4.6888   5.3000   5.6410   6.4630   7.1428
     8.1095   8.6000  15.0074  16.1301  16.9048  17.6505  19.8879  21.6621
    22.4932  23.5185  25.0046  27.8471  28.3676  29.7448  32.3534  34.0585
    34.2762  35.2333  36.6792  36.8583  37.6082  38.6843  40.5816  41.8747
    42.0065  42.5217  42.6303  43.7141

          k = 0.4545 0.2624 0.0000 (  1916 PWs)   bands (ev):

  -116.0072-116.0072 -69.6567 -69.6558 -69.6488 -69.6473 -69.6346 -69.6327
    -7.6409  -7.3772   3.0772   3.3962   3.5049   3.8929   3.9220   3.9512
     4.3132   4.3860   4.5233   4.7222   5.2426   5.6981   6.4691   7.1587
     8.1717   8.6051  14.8186  16.2788  16.9068  17.6743  19.9130  21.6204
    22.5088  23.4820  25.0137  27.8241  28.4133  29.5606  32.3880  33.8537
    34.5879  35.3139  36.6761  36.8109  37.6654  38.5988  40.2789  40.9180
    41.7585  42.1344  43.2349  43.4976

          k = 0.4091 0.2362 0.0000 (  1922 PWs)   bands (ev):

  -116.0073-116.0072 -69.6737 -69.6638 -69.6546 -69.6513 -69.6361 -69.6333
    -7.6995  -7.3770   3.0484   3.3918   3.4889   3.8162   3.8567   3.9526
     4.2563   4.3577   4.5190   4.7754   5.2406   5.7739   6.5458   7.2487
     8.3014   8.6587  14.4093  16.5822  16.9160  17.7491  19.9987  21.5615
    22.5607  23.4286  25.0273  27.7372  28.5831  29.1003  32.4861  33.7288
    34.9434  35.4550  36.5472  36.8808  37.8481  38.3629  39.0174  40.5723
    40.9121  41.3212  42.3677  44.8860

          k = 0.3636 0.2099 0.0000 (  1916 PWs)   bands (ev):

  -116.0072-116.0072 -69.6705 -69.6665 -69.6505 -69.6462 -69.6284 -69.6104
    -7.7821  -7.3853   3.0264   3.3864   3.4861   3.7362   3.8548   3.9956
     4.2039   4.3609   4.4953   4.7728   5.2824   5.8854   6.7510   7.4103
     8.4900   8.7756  13.9309  16.7727  16.9939  17.9162  20.1189  21.5727
    22.6343  23.3703  25.0226  27.6017  28.4980  28.8928  32.6187  33.7777
    35.0555  35.4236  36.2242  37.0986  37.8914  38.0738  38.1339  39.3200
    39.9096  41.4460  42.0059  45.0692

          k = 0.3182 0.1837 0.0000 (  1914 PWs)   bands (ev):

  -116.0073-116.0072 -69.6889 -69.6641 -69.6504 -69.6357 -69.6206 -69.6041
    -7.8790  -7.4030   3.0054   3.3916   3.4713   3.6542   3.7769   4.0196
     4.1301   4.3532   4.4907   4.7664   5.2353   6.1624   7.0057   7.5983
     8.6909   8.8860  13.4082  16.6413  17.2299  18.1869  20.3006  21.7566
    22.6666  23.3463  24.9526  27.4937  27.8741  29.3036  32.7026  33.8961
    34.7386  35.1877  35.4374  37.0562  37.3758  37.8188  37.8535  39.0827
    39.1781  40.7211  42.8334  43.4090

          k = 0.2727 0.1575 0.0000 (  1914 PWs)   bands (ev):

  -116.0073-116.0072 -69.6755 -69.6568 -69.6516 -69.6447 -69.6328 -69.6075
    -7.9817  -7.4296   3.0439   3.3716   3.4341   3.5761   3.6610   3.9571
     4.1479   4.3278   4.5059   4.7714   5.0822   6.5676   7.3379   7.7877
     8.8752   8.9994  12.8685  16.3638  17.4059  18.5859  20.5867  22.1299
    22.6103  23.3893  24.8123  27.3000  27.4581  29.7831  32.6210  33.7495
    34.0632  34.2773  34.9886  36.2306  37.4447  37.6096  37.9959  38.2481
    39.7037  40.3526  41.9526  43.7256

          k = 0.2273 0.1312 0.0000 (  1902 PWs)   bands (ev):

  -116.0073-116.0071 -69.6441 -69.6422 -69.6403 -69.6319 -69.6211 -69.6188
    -8.0819  -7.4612   3.0845   3.3832   3.3879   3.5373   3.6142   3.9268
     4.1979   4.2951   4.5007   4.7948   4.9375   7.0286   7.7383   8.0168
     9.0513   9.1262  12.3398  15.9696  17.5116  19.1172  21.0009  22.4930
    22.6299  23.4755  24.6591  26.8593  27.5126  30.2335  32.2394  32.9200
    33.1641  33.4558  34.7515  36.0588  37.2136  37.3513  37.7527  38.3501
    39.4937  40.8392  41.0420  44.5638

          k = 0.1818 0.1050 0.0000 (  1898 PWs)   bands (ev):

  -116.0073-116.0071 -69.6471 -69.6395 -69.6386 -69.6273 -69.6151 -69.6130
    -8.1734  -7.4953   3.1316   3.3561   3.3886   3.4627   3.5549   3.8581
     4.2325   4.2975   4.5040   4.7638   4.8577   7.4866   8.0957   8.2221
     9.1819   9.2510  11.7995  15.5146  17.5618  19.7406  21.5190  22.3490
    23.1243  23.5274  24.6161  26.6470  27.5961  30.2946  31.5705  32.0876
    32.1371  32.8795  34.5722  35.9071  36.4717  37.4903  37.8328  38.7958
    38.9763  40.2688  41.8740  45.2173

          k = 0.1364 0.0787 0.0000 (  1900 PWs)   bands (ev):

  -116.0073-116.0072 -69.6526 -69.6459 -69.6347 -69.6330 -69.6174 -69.6130
    -8.2504  -7.5266   3.1637   3.3092   3.3940   3.4265   3.5186   3.7903
     4.2482   4.2886   4.4664   4.6293   4.8603   7.9421   8.4067   8.4567
     9.2930   9.3452  11.2759  15.0591  17.5823  20.4333  22.0901  22.2115
    23.3751  23.4939  24.8985  26.6800  27.6449  29.6879  30.8636  31.0832
    31.4936  32.8877  34.4452  34.6858  36.8790  37.7791  37.8641  38.3481
    39.2942  39.9941  42.7590  45.3840

          k = 0.0909 0.0525 0.0000 (  1882 PWs)   bands (ev):

  -116.0073-116.0071 -69.6348 -69.6302 -69.6133 -69.6098 -69.5994 -69.5967
    -8.3085  -7.5511   3.2215   3.2996   3.4069   3.4562   3.4953   3.7542
     4.2994   4.3041   4.4803   4.5890   4.9270   8.3430   8.5635   8.8478
     9.3860   9.4316  10.7792  14.6705  17.6002  21.1475  22.1083  22.6690
    23.3671  23.4069  25.4216  26.9408  27.5479  29.1190  30.1272  30.1924
    30.9101  33.1746  33.7507  34.3631  37.3485  37.6946  37.8597  38.0327
    39.8060  40.0319  43.5804  44.7212

          k = 0.0455 0.0262 0.0000 (  1894 PWs)   bands (ev):

  -116.0074-116.0072 -69.6429 -69.6377 -69.6322 -69.6240 -69.6146 -69.6078
    -8.3453  -7.5670   3.2358   3.2659   3.4027   3.4241   3.4306   3.7272
     4.2770   4.2870   4.4114   4.4735   4.9798   8.5904   8.6472   9.2208
     9.4228   9.4689  10.3137  14.4018  17.5936  21.7442  22.0347  23.1057
    23.2811  23.3152  25.7070  27.3013  27.4537  28.9041  29.4488  29.5483
    30.4310  32.5560  34.0432  34.2890  37.1021  37.6810  37.8320  38.1203
    40.2328  40.2672  44.1148  44.1177

          k = 0.0000 0.0000 0.0000 (  1907 PWs)   bands (ev):

  -116.0074-116.0072 -69.6644 -69.6578 -69.6577 -69.6259 -69.6258 -69.6120
    -8.3578  -7.5735   3.2334   3.2342   3.3989   3.4275   3.4279   3.7109
     4.2622   4.2625   4.3675   4.3677   4.9619   8.6561   8.6573   9.4359
     9.4569   9.4569  10.0390  14.3047  17.5743  22.0018  22.0030  23.2312
    23.2786  23.2820  25.7032  27.5091  27.5105  29.0412  29.1147  29.1158
    30.2634  32.2350  34.2643  34.2679  36.8269  37.8225  37.8247  38.1090
    40.4063  40.4088  43.8498  43.8525

          k = 0.0000 0.0000 0.0520 (  1900 PWs)   bands (ev):

  -116.0074-116.0072 -69.6723 -69.6326 -69.6325 -69.6229 -69.6189 -69.6188
    -8.3450  -7.5871   3.2582   3.2590   3.3636   3.4275   3.4279   3.6491
     4.2783   4.2785   4.3917   4.3920   5.0342   8.7073   8.7085   9.1854
     9.4682   9.4683  10.3119  14.2547  17.6382  22.0114  22.0127  22.9463
    23.2248  23.2282  25.8007  27.5882  27.5896  28.9850  29.2092  29.2104
    30.5703  32.2207  34.1730  34.1765  36.9960  37.6946  37.6969  37.9219
    40.4592  40.4616  43.3463  43.3477

          k = 0.0000 0.0000 0.1040 (  1900 PWs)   bands (ev):

  -116.0074-116.0072 -69.6844 -69.6604 -69.6253 -69.6252 -69.6075 -69.6074
    -8.3088  -7.6287   3.2701   3.2728   3.2736   3.4193   3.4197   3.4972
     4.2645   4.2646   4.4676   4.4677   5.2914   8.6959   8.7559   8.7571
     9.4336   9.4338  10.7487  14.1216  17.7505  22.0143  22.0157  22.2585
    23.0910  23.0942  26.0063  27.8016  27.8031  28.8192  29.4593  29.4603
    31.3927  32.2449  33.9269  33.9301  37.2911  37.2935  37.4445  37.4652
    40.5833  40.5856  42.5828  42.5831

          k = 0.0000 0.0000 0.1561 (  1882 PWs)   bands (ev):

  -116.0073-116.0071 -69.6671 -69.6460 -69.6011 -69.6011 -69.5975 -69.5974
    -8.2490  -7.6933   3.2318   3.3088   3.3095   3.3660   3.4365   3.4370
     4.3234   4.3235   4.4863   4.4865   5.6703   8.2794   8.8354   8.8365
     9.3897   9.3901  11.2529  13.8967  17.9615  21.4567  22.0450  22.0466
    22.8984  22.9015  26.2701  28.1671  28.1687  28.5349  29.7706  29.7713
    32.4038  32.5174  33.6587  33.6611  36.6761  36.6785  36.8519  38.0717
    40.7465  40.7485  41.9939  41.9943

          k = 0.0000 0.0000 0.2081 (  1882 PWs)   bands (ev):

  -116.0073-116.0072 -69.6649 -69.6493 -69.6005 -69.6005 -69.6003 -69.6002
    -8.1707  -7.7776   3.1895   3.2669   3.3212   3.3219   3.4105   3.4110
     4.3493   4.3494   4.4610   4.4611   6.0819   7.8505   8.9208   8.9218
     9.3091   9.3095  11.7668  13.5848  18.2719  20.6448  22.0937  22.0955
    22.6832  22.6860  26.5731  28.1544  28.6019  28.6035  29.9580  29.9581
    32.7411  33.5344  33.5356  33.6352  35.8954  35.8977  36.3865  38.5658
    40.9015  40.9033  41.6029  41.6037

          k = 0.0000 0.0000 0.2601 (  1900 PWs)   bands (ev):

  -116.0073-116.0073 -69.7131 -69.6683 -69.6193 -69.6193 -69.6036 -69.6035
    -8.0782  -7.8760   3.1284   3.1579   3.3256   3.3263   3.3763   3.3769
     4.3580   4.3580   4.3611   4.3613   6.4868   7.4190   9.0050   9.0059
     9.2092   9.2098  12.2714  13.1871  18.6845  19.8935  22.1777  22.1797
    22.4733  22.4758  26.9217  27.7220  29.0815  29.0832  29.8711  29.8721
    33.1934  33.7232  33.7235  34.0863  35.0565  35.0584  36.6639  38.5286
    41.0287  41.0302  41.3478  41.3489

          k = 0.0000 0.0000 0.3121 (  1894 PWs)   bands (ev):

  -116.0073-116.0073 -69.6839 -69.6839 -69.6057 -69.6057 -69.6056 -69.6056
    -7.9774  -7.9774   3.1275   3.1275   3.3590   3.3590   3.3597   3.3597
     4.3711   4.3711   4.3712   4.3712   6.9798   6.9798   9.1065   9.1065
     9.1073   9.1073  12.7546  12.7546  19.2278  19.2278  22.3086  22.3086
    22.3109  22.3109  27.3095  27.3095  29.5448  29.5448  29.5463  29.5463
    33.7326  33.7326  34.2933  34.2933  34.2946  34.2946  37.7018  37.7018
    41.1771  41.1771  41.1784  41.1784

          k = 0.0256 0.0444 0.3121 (  1900 PWs)   bands (ev):

  -116.0073-116.0073 -69.6824 -69.6824 -69.6158 -69.6158 -69.6144 -69.6144
    -7.9686  -7.9686   3.1146   3.1146   3.3419   3.3419   3.3599   3.3599
     4.3541   4.3541   4.3811   4.3811   6.9762   6.9762   9.0334   9.0334
     9.0804   9.0804  12.8235  12.8235  19.2225  19.2225  22.1560  22.1560
    22.3257  22.3257  27.4216  27.4216  29.5089  29.5089  29.5700  29.5700
    33.3955  33.3955  34.3559  34.3559  34.7339  34.7339  37.8551  37.8551
    41.0764  41.0764  41.1837  41.1837

          k = 0.0513 0.0888 0.3121 (  1896 PWs)   bands (ev):

  -116.0073-116.0073 -69.6671 -69.6671 -69.6154 -69.6154 -69.6121 -69.6121
    -7.9422  -7.9422   3.1089   3.1089   3.3551   3.3551   3.3864   3.3864
     4.3743   4.3743   4.4066   4.4066   6.9747   6.9747   8.8585   8.8585
     9.0185   9.0185  13.0149  13.0149  19.2039  19.2039  21.7932  21.7932
    22.3844  22.3844  27.5574  27.5574  29.3959  29.3959  29.8567  29.8567
    33.0161  33.0161  34.5177  34.5177  35.4453  35.4453  38.2754  38.2754
    40.8391  40.8391  41.2229  41.2229

          k = 0.0769 0.1332 0.3121 (  1908 PWs)   bands (ev):

  -116.0073-116.0073 -69.6781 -69.6781 -69.6391 -69.6391 -69.6100 -69.6100
    -7.9005  -7.9005   3.0685   3.0685   3.3578   3.3578   3.4079   3.4079
     4.3818   4.3818   4.4008   4.4008   6.9245   6.9245   8.6058   8.6058
     8.8906   8.8906  13.2813  13.2813  19.1401  19.1401  21.3692  21.3692
    22.4560  22.4560  27.4644  27.4644  29.1972  29.1972  30.5898  30.5898
    32.7906  32.7906  34.6931  34.6931  36.1933  36.1933  38.8225  38.8225
    40.5768  40.5768  41.3290  41.3290

          k = 0.1026 0.1776 0.3121 (  1910 PWs)   bands (ev):

  -116.0073-116.0073 -69.6759 -69.6759 -69.6446 -69.6446 -69.6087 -69.6087
    -7.8457  -7.8457   3.0434   3.0434   3.3830   3.3830   3.4552   3.4552
     4.3731   4.3731   4.4231   4.4231   6.8597   6.8597   8.3859   8.3859
     8.7248   8.7248  13.6038  13.6038  19.0191  19.0191  21.0023  21.0023
    22.5204  22.5204  27.2529  27.2529  28.9653  28.9653  31.6014  31.6014
    32.8104  32.8104  34.8344  34.8344  36.8348  36.8348  39.3241  39.3241
    40.4364  40.4364  41.5898  41.5898

          k = 0.1282 0.2221 0.3121 (  1926 PWs)   bands (ev):

  -116.0073-116.0073 -69.6926 -69.6926 -69.6615 -69.6615 -69.6228 -69.6228
    -7.7824  -7.7824   3.0004   3.0004   3.3966   3.3966   3.5095   3.5095
     4.3572   4.3572   4.3855   4.3855   6.7173   6.7173   8.1884   8.1884
     8.5160   8.5160  13.9414  13.9414  18.8284  18.8284  20.7127  20.7127
    22.5589  22.5589  27.0238  27.0238  28.7793  28.7793  32.3146  32.3146
    33.4246  33.4246  34.9226  34.9226  37.2011  37.2011  39.6527  39.6527
    40.4859  40.4859  42.1143  42.1143

          k = 0.1538 0.2665 0.3121 (  1926 PWs)   bands (ev):

  -116.0073-116.0073 -69.6923 -69.6923 -69.6548 -69.6548 -69.6251 -69.6251
    -7.7134  -7.7134   3.0039   3.0039   3.4290   3.4290   3.5641   3.5641
     4.3606   4.3606   4.4240   4.4240   6.5309   6.5309   8.0579   8.0579
     8.3004   8.3004  14.2951  14.2951  18.6128  18.6128  20.4669  20.4669
    22.6134  22.6134  26.8227  26.8227  28.7306  28.7306  32.5619  32.5619
    34.5501  34.5501  35.0427  35.0427  37.3721  37.3721  39.8505  39.8505
    40.6779  40.6779  42.9462  42.9462

          k = 0.1795 0.3109 0.3121 (  1916 PWs)   bands (ev):

  -116.0072-116.0072 -69.6670 -69.6670 -69.6457 -69.6457 -69.6252 -69.6252
    -7.6444  -7.6444   3.0294   3.0294   3.4750   3.4750   3.6385   3.6385
     4.3863   4.3863   4.4935   4.4935   6.3090   6.3090   7.8938   7.8938
     8.1619   8.1619  14.6646  14.6646  18.4096  18.4096  20.1878  20.1878
    22.7330  22.7330  26.6182  26.6182  28.8382  28.8382  32.7114  32.7114
    34.7121  34.7121  35.9750  35.9750  37.7164  37.7164  39.9424  39.9424
    40.9528  40.9528  43.9118  43.9118

          k = 0.2051 0.3553 0.3121 (  1918 PWs)   bands (ev):

  -116.0072-116.0072 -69.6625 -69.6625 -69.6492 -69.6492 -69.6300 -69.6300
    -7.5805  -7.5805   3.0707   3.0707   3.5100   3.5100   3.6836   3.6836
     4.3838   4.3838   4.5319   4.5319   6.0666   6.0666   7.6249   7.6249
     8.1308   8.1308  15.0409  15.0409  18.2342  18.2342  19.8373  19.8373
    22.9401  22.9401  26.3981  26.3981  29.0347  29.0347  32.7600  32.7600
    34.5752  34.5752  36.6207  36.6207  38.6950  38.6950  40.0036  40.0036
    41.2411  41.2411  44.1627  44.1627

          k = 0.2308 0.3997 0.3121 (  1922 PWs)   bands (ev):

  -116.0072-116.0072 -69.6663 -69.6663 -69.6451 -69.6451 -69.6392 -69.6392
    -7.5253  -7.5253   3.1179   3.1179   3.5456   3.5456   3.7179   3.7179
     4.3977   4.3977   4.5903   4.5903   5.8096   5.8096   7.3259   7.3259
     8.1411   8.1411  15.4387  15.4387  18.0915  18.0915  19.4161  19.4161
    23.2458  23.2458  26.1800  26.1800  29.2069  29.2069  32.6937  32.6937
    34.5351  34.5351  36.8876  36.8876  39.6864  39.6864  40.3441  40.3441
    41.6952  41.6952  43.8201  43.8201

          k = 0.2564 0.4441 0.3121 (  1926 PWs)   bands (ev):

  -116.0072-116.0072 -69.6658 -69.6658 -69.6533 -69.6533 -69.6438 -69.6438
    -7.4822  -7.4822   3.1780   3.1780   3.5524   3.5524   3.7975   3.7975
     4.3386   4.3386   4.6657   4.6657   5.6116   5.6116   7.0381   7.0381
     8.1583   8.1583  15.8541  15.8541  17.9848  17.9848  18.9605  18.9605
    23.6367  23.6367  25.9555  25.9555  29.2223  29.2223  32.6166  32.6166
    34.6606  34.6606  36.9845  36.9845  39.9072  39.9072  40.9378  40.9378
    42.6831  42.6831  43.7350  43.7350

          k = 0.2821 0.4885 0.3121 (  1924 PWs)   bands (ev):

  -116.0072-116.0072 -69.6592 -69.6592 -69.6536 -69.6536 -69.6445 -69.6445
    -7.4517  -7.4517   3.2367   3.2367   3.5430   3.5430   3.8846   3.8846
     4.3166   4.3166   4.7403   4.7403   5.4700   5.4700   6.8002   6.8002
     8.1791   8.1791  16.2977  16.2977  17.8772  17.8772  18.5104  18.5104
    24.0919  24.0919  25.7091  25.7091  29.0653  29.0653  32.6687  32.6687
    34.8648  34.8648  36.9072  36.9072  40.0633  40.0633  41.2165  41.2165
    43.4094  43.4094  44.4129  44.4129

          k = 0.3077 0.5329 0.3121 (  1920 PWs)   bands (ev):

  -116.0072-116.0072 -69.6583 -69.6583 -69.6459 -69.6459 -69.6419 -69.6419
    -7.4345  -7.4345   3.2953   3.2953   3.5203   3.5203   3.9620   3.9620
     4.2911   4.2911   4.8067   4.8067   5.3959   5.3959   6.6342   6.6342
     8.1874   8.1874  16.7683  16.7683  17.6725  17.6725  18.1784  18.1784
    24.5689  24.5689  25.4134  25.4134  28.8499  28.8499  32.8062  32.8062
    35.0687  35.0687  36.6978  36.6978  40.2791  40.2791  41.3644  41.3644
    43.7006  43.7006  44.5569  44.5569

          k = 0.3333 0.5774 0.3121 (  1908 PWs)   bands (ev):

  -116.0072-116.0072 -69.6621 -69.6621 -69.6233 -69.6233 -69.6232 -69.6232
    -7.4279  -7.4279   3.3330   3.3330   3.5212   3.5212   3.9903   3.9903
     4.3202   4.3202   4.8598   4.8598   5.3840   5.3840   6.5714   6.5714
     8.2030   8.2030  17.1642  17.1642  17.3683  17.3683  18.0864  18.0864
    24.9562  24.9562  25.1072  25.1072  28.7521  28.7521  32.8856  32.8856
    35.1528  35.1528  36.5793  36.5793  40.4367  40.4367  41.3799  41.3799
    43.7887  43.7887  44.7859  44.7859

          k = 0.3333 0.5774 0.2675 (  1908 PWs)   bands (ev):

  -116.0072-116.0072 -69.6507 -69.6507 -69.6357 -69.6281 -69.6281 -69.6230
    -7.4293  -7.4292   3.3441   3.3441   3.4432   3.6073   4.0088   4.0088
     4.2974   4.3138   4.8450   4.8450   5.3984   5.3985   6.3486   6.8095
     8.1650   8.1653  17.1377  17.1382  17.3037  17.4158  18.1767  18.1775
    24.2805  25.0057  25.0060  25.7110  28.8514  28.8515  32.7688  33.0245
    35.1221  35.1226  36.6531  36.6541  39.7973  40.7321  40.8807  40.8809
    43.8456  44.2061  44.2064  44.9789

          k = 0.3333 0.5774 0.2229 (  1908 PWs)   bands (ev):

  -116.0072-116.0072 -69.6546 -69.6546 -69.6348 -69.6254 -69.6253 -69.6174
    -7.4309  -7.4308   3.3841   3.3846   3.3848   3.7159   4.0077   4.0077
     4.2880   4.3308   4.8229   4.8230   5.4190   5.4192   6.1366   7.0179
     8.0587   8.0591  17.0808  17.0815  17.2373  17.4601  18.4249  18.4262
    23.7036  24.7223  24.7229  26.5424  29.1131  29.1132  32.6649  33.1959
    35.0380  35.0387  36.8420  36.8438  39.1099  39.9281  39.9283  40.2511
    43.7862  44.5481  44.5488  45.5543

          k = 0.3333 0.5774 0.1783 (  1911 PWs)   bands (ev):

  -116.0072-116.0072 -69.6507 -69.6493 -69.6493 -69.6285 -69.6285 -69.6204
    -7.4335  -7.4334   3.3158   3.4465   3.4466   3.8285   4.0519   4.0519
     4.2809   4.2971   4.7673   4.7673   5.4396   5.4399   5.9141   7.1966
     7.9239   7.9246  17.0270  17.0277  17.1596  17.4938  18.7735  18.7750
    23.2154  24.3119  24.3128  27.4322  29.4656  29.4658  32.5601  33.3780
    34.9632  34.9639  37.0393  37.0413  38.4276  38.9853  38.9859  39.2190
    44.3706  44.5445  44.5454  46.3468

          k = 0.3333 0.5774 0.1338 (  1929 PWs)   bands (ev):

  -116.0072-116.0072 -69.6733 -69.6641 -69.6641 -69.6507 -69.6507 -69.6409
    -7.4370  -7.4368   3.2444   3.4948   3.4950   3.8847   4.0667   4.0667
     4.2407   4.2588   4.6603   4.6603   5.4732   5.4735   5.7056   7.3494
     7.7395   7.7403  16.9798  16.9804  17.0792  17.5087  19.1694  19.1711
    22.8221  23.8494  23.8506  28.3459  29.8521  29.8524  32.4265  33.5820
    34.9247  34.9253  37.0101  37.0113  37.8216  38.0939  38.3408  38.3424
    44.4413  44.4422  45.1257  46.7498

          k = 0.3333 0.5774 0.0892 (  1935 PWs)   bands (ev):

  -116.0072-116.0072 -69.6756 -69.6755 -69.6733 -69.6569 -69.6569 -69.6438
    -7.4397  -7.4395   3.2147   3.5430   3.5432   3.9591   4.0884   4.0884
     4.2395   4.2557   4.5972   4.5972   5.5173   5.5177   5.5372   7.4748
     7.5642   7.5652  16.9494  16.9499  17.0224  17.5140  19.5731  19.5748
    22.5558  23.4021  23.4035  29.2524  30.2205  30.2208  32.2310  33.7926
    34.9615  34.9619  36.5348  36.5350  37.1034  37.3330  38.2230  38.2259
    44.3350  44.3360  45.8848  46.8678

          k = 0.3333 0.5774 0.0446 (  1929 PWs)   bands (ev):

  -116.0072-116.0072 -69.6653 -69.6653 -69.6631 -69.6508 -69.6508 -69.6439
    -7.4413  -7.4410   3.2107   3.5971   3.5973   4.0202   4.1517   4.1518
     4.2308   4.2815   4.5477   4.5478   5.4383   5.5598   5.5601   7.4618
     7.4629   7.5568  16.9358  16.9363  16.9883  17.5218  19.9054  19.9071
    22.3992  23.0541  23.0556  30.0497  30.4963  30.4967  31.9571  33.9577
    35.1129  35.1130  35.9449  35.9453  36.4135  37.0026  38.3201  38.3234
    44.2481  44.2490  46.4574  46.9058

          k = 0.3333 0.5774 0.0000 (  1923 PWs)   bands (ev):

  -116.0072-116.0072 -69.6619 -69.6618 -69.6543 -69.6428 -69.6428 -69.6312
    -7.4416  -7.4413   3.2436   3.6087   3.6089   4.0598   4.1913   4.1914
     4.2326   4.3093   4.5228   4.5230   5.4279   5.5787   5.5791   7.4143
     7.4155   7.5836  16.9334  16.9339  16.9798  17.5335  20.0450  20.0467
    22.3551  22.9136  22.9152  30.4542  30.5981  30.5985  31.7568  34.0311
    35.3285  35.3295  35.5668  35.5682  36.1639  36.8945  38.3592  38.3626
    44.2188  44.2197  46.6824  46.9144

     Writing all to output data dir /scratch/elinscott/materials_cloud_archive/zno/coarse_grid/TMP/kc_bands.save/
 
     init_run     :      0.04s CPU      0.06s WALL (       1 calls)
     electrons    :      5.13s CPU      5.30s WALL (       1 calls)

     Called by init_run:
     wfcinit      :      0.00s CPU      0.00s WALL (       1 calls)
     wfcinit:atom :      0.00s CPU      0.00s WALL (      27 calls)
     wfcinit:wfcr :      0.19s CPU      0.21s WALL (      27 calls)
     potinit      :      0.00s CPU      0.01s WALL (       1 calls)
     hinit0       :      0.03s CPU      0.04s WALL (       1 calls)

     Called by electrons:
     c_bands      :      5.13s CPU      5.30s WALL (       1 calls)
     v_of_rho     :      0.00s CPU      0.00s WALL (       1 calls)
     v_h          :      0.00s CPU      0.00s WALL (       1 calls)
     v_xc         :      0.00s CPU      0.00s WALL (       1 calls)

     Called by c_bands:
     init_us_2    :      0.00s CPU      0.00s WALL (      27 calls)
     init_us_2:cp :      0.00s CPU      0.00s WALL (      27 calls)
     cegterg      :      4.49s CPU      4.61s WALL (      52 calls)

     Called by sum_band:

     Called by *egterg:
     cdiaghg      :      1.80s CPU      1.82s WALL (     733 calls)
     cegterg:over :      0.26s CPU      0.26s WALL (     706 calls)
     cegterg:upda :      0.13s CPU      0.13s WALL (     706 calls)
     cegterg:last :      0.22s CPU      0.22s WALL (     340 calls)
     h_psi        :      2.17s CPU      2.25s WALL (     785 calls)
     g_psi        :      0.02s CPU      0.02s WALL (     706 calls)

     Called by h_psi:
     h_psi:calbec :      0.11s CPU      0.11s WALL (     785 calls)
     vloc_psi     :      1.95s CPU      2.03s WALL (     785 calls)
     add_vuspsi   :      0.09s CPU      0.10s WALL (     785 calls)

     General routines
     calbec       :      0.11s CPU      0.11s WALL (     785 calls)
     fft          :      0.00s CPU      0.01s WALL (       5 calls)
     fftw         :      1.71s CPU      1.78s WALL (   38840 calls)
     davcio       :      0.01s CPU      0.01s WALL (      54 calls)
 
     Parallel routines
 
     PWSCF        :      5.29s CPU      5.55s WALL

 
   This run was terminated on:  11:54:47  12Dec2022            

=------------------------------------------------------------------------------=
   JOB DONE.
=------------------------------------------------------------------------------=
