
     Program PWSCF v.7.1 starts on 12Dec2022 at 11:54:35 

     This program is part of the open-source Quantum ESPRESSO suite
     for quantum simulation of materials; please cite
         "P. Giannozzi et al., J. Phys.:Condens. Matter 21 395502 (2009);
         "P. Giannozzi et al., J. Phys.:Condens. Matter 29 465901 (2017);
         "P. Giannozzi et al., J. Chem. Phys. 152 154105 (2020);
          URL http://www.quantum-espresso.org", 
     in publications or presentations arising from this work. More details at
     http://www.quantum-espresso.org/quote

     Parallel version (MPI), running on    16 processors

     MPI processes distributed on     1 nodes
     73546 MiB available memory on the printing compute node when the environment starts
 
     Reading input from nscf.pwi
Warning: card &IONS ignored
Warning: card / ignored
Warning: card &CELL ignored
Warning: card / ignored

     Current dimensions of program PWSCF are:
     Max number of different atomic species (ntypx) = 10
     Max number of k-points (npk) =  40000
     Max angular momentum in pseudopotentials (lmaxx) =  4

     Atomic positions and unit cell read from directory:
     /scratch/elinscott/materials_cloud_archive/zno/coarse_grid/TMP/kc.save/
     Atomic positions from file used, from input discarded
 
 
     K-points division:     npool     =       4
     R & G space division:  proc/nbgrp/npool/nimage =       4
     Subspace diagonalization in iterative solution of the eigenvalue problem:
     a serial algorithm will be used

 
     Parallelization info
     --------------------
     sticks:   dense  smooth     PW     G-vecs:    dense   smooth      PW
     Min         127     127     40                 3819     3819     714
     Max         128     128     41                 3826     3826     721
     Sum         511     511    163                15291    15291    2875
 
     Using Slab Decomposition
 


     bravais-lattice index     =            4
     lattice parameter (alat)  =       6.1406  a.u.
     unit-cell volume          =     321.2403 (a.u.)^3
     number of atoms/cell      =            4
     number of atomic types    =            2
     number of electrons       =        52.00 (up:  26.00, down:  26.00)
     number of Kohn-Sham states=           52
     kinetic-energy cutoff     =      50.0000  Ry
     charge density cutoff     =     200.0000  Ry
     Exchange-correlation= SLA  PW   NOGX NOGC
                           (   1   4   0   0   0   0   0)

     celldm(1)=   6.140570  celldm(2)=   0.000000  celldm(3)=   1.602040
     celldm(4)=   0.000000  celldm(5)=   0.000000  celldm(6)=   0.000000

     crystal axes: (cart. coord. in units of alat)
               a(1) = (   1.000000   0.000000   0.000000 )  
               a(2) = (  -0.500000   0.866025   0.000000 )  
               a(3) = (   0.000000   0.000000   1.602040 )  

     reciprocal axes: (cart. coord. in units 2 pi/alat)
               b(1) = (  1.000000  0.577350  0.000000 )  
               b(2) = (  0.000000  1.154701  0.000000 )  
               b(3) = (  0.000000  0.000000  0.624204 )  


     PseudoPot. # 1 for Zn read from file:
     /home/elinscott/code/koopmans/src/koopmans/pseudopotentials/pseudo_dojo_standard_v0.4.1/lda/Zn.upf
     MD5 check sum: 492e12d15cacde48a98384ec5dd6fb31
     Pseudo is Norm-conserving + core correction, Zval = 20.0
     Generated using ONCVPSP code by D. R. Hamann
     Using radial grid of 1296 points,  6 beta functions with: 
                l(1) =   0
                l(2) =   0
                l(3) =   1
                l(4) =   1
                l(5) =   2
                l(6) =   2

     PseudoPot. # 2 for O  read from file:
     /home/elinscott/code/koopmans/src/koopmans/pseudopotentials/pseudo_dojo_standard_v0.4.1/lda/O.upf
     MD5 check sum: 86ed389b6a5065e60c3f64c68a612de9
     Pseudo is Norm-conserving + core correction, Zval =  6.0
     Generated using ONCVPSP code by D. R. Hamann
     Using radial grid of  926 points,  5 beta functions with: 
                l(1) =   0
                l(2) =   0
                l(3) =   1
                l(4) =   1
                l(5) =   2

     atomic species   valence    mass     pseudopotential
        Zn            20.00    65.38000     Zn( 1.00)
        O              6.00    15.99900     O ( 1.00)

     Starting magnetic structure 
     atomic species   magnetization
        Zn           0.000
        O            0.000

     No symmetry found


                                    s                        frac. trans.

      isym =  1     identity                                     

 cryst.   s( 1) = (     1          0          0      )
                  (     0          1          0      )
                  (     0          0          1      )

 cart.    s( 1) = (  1.0000000  0.0000000  0.0000000 )
                  (  0.0000000  1.0000000  0.0000000 )
                  (  0.0000000  0.0000000  1.0000000 )


     point group C_1 (1)    
     there are  1 classes
     the character table:

       E    
A      1.00

     the symmetry operations in each class and the name of the first element:

     E        1
          identity                                               

   Cartesian axes

     site n.     atom                  positions (alat units)
         1           Zn  tau(   1) = (  -0.0000500   0.5773791   0.8010200  )
         2           Zn  tau(   2) = (   0.5000500   0.2886463   0.0000000  )
         3           O   tau(   3) = (  -0.0000500   0.5773791   0.1878392  )
         4           O   tau(   4) = (   0.5000500   0.2886463   0.9888592  )

   Crystallographic axes

     site n.     atom                  positions (cryst. coord.)
         1           Zn  tau(   1) = (  0.3333000  0.6667000  0.5000000  )
         2           Zn  tau(   2) = (  0.6667000  0.3333000  0.0000000  )
         3           O   tau(   3) = (  0.3333000  0.6667000  0.1172500  )
         4           O   tau(   4) = (  0.6667000  0.3333000  0.6172500  )

     number of k points=     8
                       cart. coord. in units 2pi/alat
        k(    1) = (   0.0000000   0.0000000   0.0000000), wk =   0.1250000
        k(    2) = (   0.0000000   0.0000000  -0.3121021), wk =   0.1250000
        k(    3) = (   0.0000000  -0.5773503   0.0000000), wk =   0.1250000
        k(    4) = (   0.0000000  -0.5773503  -0.3121021), wk =   0.1250000
        k(    5) = (  -0.5000000  -0.2886751   0.0000000), wk =   0.1250000
        k(    6) = (  -0.5000000  -0.2886751  -0.3121021), wk =   0.1250000
        k(    7) = (  -0.5000000  -0.8660254   0.0000000), wk =   0.1250000
        k(    8) = (  -0.5000000  -0.8660254  -0.3121021), wk =   0.1250000

                       cryst. coord.
        k(    1) = (   0.0000000   0.0000000   0.0000000), wk =   0.1250000
        k(    2) = (   0.0000000   0.0000000  -0.5000000), wk =   0.1250000
        k(    3) = (   0.0000000  -0.5000000   0.0000000), wk =   0.1250000
        k(    4) = (   0.0000000  -0.5000000  -0.5000000), wk =   0.1250000
        k(    5) = (  -0.5000000  -0.0000000   0.0000000), wk =   0.1250000
        k(    6) = (  -0.5000000  -0.0000000  -0.5000000), wk =   0.1250000
        k(    7) = (  -0.5000000  -0.5000000   0.0000000), wk =   0.1250000
        k(    8) = (  -0.5000000  -0.5000000  -0.5000000), wk =   0.1250000

     Dense  grid:    15291 G-vectors     FFT dimensions: (  27,  27,  45)

     Dynamical RAM for                 wfc:       0.38 MB

     Dynamical RAM for     wfc (w. buffer):       0.38 MB

     Dynamical RAM for           str. fact:       0.12 MB

     Dynamical RAM for           local pot:       0.00 MB

     Dynamical RAM for          nlocal pot:       0.45 MB

     Dynamical RAM for                qrad:       2.27 MB

     Dynamical RAM for          rho,v,vnew:       0.75 MB

     Dynamical RAM for           G-vectors:       0.25 MB

     Dynamical RAM for          h,s,v(r/c):       0.50 MB

     Dynamical RAM for          <psi|beta>:       0.05 MB

     Dynamical RAM for                 psi:       0.76 MB

     Dynamical RAM for                hpsi:       0.76 MB

     Dynamical RAM for      wfcinit/wfcrot:       0.82 MB

     Estimated static dynamical RAM per process >       4.80 MB

     Estimated max dynamical RAM per process >       6.86 MB

     Estimated total dynamical RAM >     109.77 MB

     Check: negative core charge=   -0.000271
     Generating pointlists ...
     new r_m :   0.2504 (alat units)  1.5377 (a.u.) for type    1
     new r_m :   0.2504 (alat units)  1.5377 (a.u.) for type    2

     The potential is recalculated from file :
     /scratch/elinscott/materials_cloud_archive/zno/coarse_grid/TMP/kc.save/charge-density

     Starting wfcs are   28 randomized atomic wfcs +   24 random wfcs

     Band Structure Calculation
     Davidson diagonalization with overlap

     Computing kpt #:     1  of     4 on this pool
     total cpu time spent up to now is        0.3 secs

     Computing kpt #:     2  of     4 on this pool
     total cpu time spent up to now is        0.5 secs

     Computing kpt #:     3  of     4 on this pool
     total cpu time spent up to now is        0.7 secs

     Computing kpt #:     4  of     4 on this pool
     total cpu time spent up to now is        0.9 secs

     ethr =  2.00E-10,  avg # of iterations = 23.1

     total cpu time spent up to now is        0.9 secs

     End of band structure calculation

 ------ SPIN UP ------------


          k = 0.0000 0.0000 0.0000 (  1907 PWs)   bands (ev):

  -116.0074-116.0072 -69.6645 -69.6578 -69.6577 -69.6259 -69.6258 -69.6121
    -8.3578  -7.5735   3.2334   3.2342   3.3989   3.4275   3.4279   3.7109
     4.2622   4.2625   4.3675   4.3677   4.9619   8.6561   8.6573   9.4360
     9.4569   9.4569  10.0390  14.3047  17.5743  22.0018  22.0030  23.2312
    23.2786  23.2820  25.7032  27.5091  27.5105  29.0412  29.1147  29.1158
    30.2634  32.2350  34.2643  34.2679  36.8269  37.8225  37.8247  38.1090
    40.4063  40.4088  43.8498  43.8525

     occupation numbers 
     1.0000   1.0000   1.0000   1.0000   1.0000   1.0000   1.0000   1.0000
     1.0000   1.0000   1.0000   1.0000   1.0000   1.0000   1.0000   1.0000
     1.0000   1.0000   1.0000   1.0000   1.0000   1.0000   1.0000   1.0000
     1.0000   1.0000   0.0000   0.0000   0.0000   0.0000   0.0000   0.0000
     0.0000   0.0000   0.0000   0.0000   0.0000   0.0000   0.0000   0.0000
     0.0000   0.0000   0.0000   0.0000   0.0000   0.0000   0.0000   0.0000
     0.0000   0.0000   0.0000   0.0000

          k = 0.0000 0.0000-0.3121 (  1894 PWs)   bands (ev):

  -116.0073-116.0073 -69.6841 -69.6838 -69.6057 -69.6057 -69.6056 -69.6056
    -7.9774  -7.9774   3.1274   3.1275   3.3590   3.3590   3.3597   3.3597
     4.3711   4.3711   4.3712   4.3712   6.9798   6.9799   9.1065   9.1065
     9.1073   9.1073  12.7546  12.7546  19.2278  19.2278  22.3086  22.3086
    22.3109  22.3109  27.3094  27.3095  29.5448  29.5448  29.5463  29.5463
    33.7325  33.7326  34.2933  34.2934  34.2946  34.2946  37.7017  37.7018
    41.1771  41.1771  41.1784  41.1784

     occupation numbers 
     1.0000   1.0000   1.0000   1.0000   1.0000   1.0000   1.0000   1.0000
     1.0000   1.0000   1.0000   1.0000   1.0000   1.0000   1.0000   1.0000
     1.0000   1.0000   1.0000   1.0000   1.0000   1.0000   1.0000   1.0000
     1.0000   1.0000   0.0000   0.0000   0.0000   0.0000   0.0000   0.0000
     0.0000   0.0000   0.0000   0.0000   0.0000   0.0000   0.0000   0.0000
     0.0000   0.0000   0.0000   0.0000   0.0000   0.0000   0.0000   0.0000
     0.0000   0.0000   0.0000   0.0000

          k = 0.0000-0.5774 0.0000 (  1906 PWs)   bands (ev):

  -116.0072-116.0071 -69.6469 -69.6450 -69.6426 -69.6307 -69.6261 -69.6201
    -7.6185  -7.3782   3.1045   3.4157   3.5192   3.9058   3.9695   3.9787
     4.3219   4.4391   4.5436   4.6888   5.3000   5.6410   6.4630   7.1428
     8.1095   8.6000  15.0073  16.1301  16.9048  17.6505  19.8879  21.6621
    22.4932  23.5185  25.0046  27.8470  28.3676  29.7448  32.3535  34.0584
    34.2762  35.2333  36.6792  36.8583  37.6081  38.6843  40.5816  41.8747
    42.0065  42.5217  42.6303  43.7141

     occupation numbers 
     1.0000   1.0000   1.0000   1.0000   1.0000   1.0000   1.0000   1.0000
     1.0000   1.0000   1.0000   1.0000   1.0000   1.0000   1.0000   1.0000
     1.0000   1.0000   1.0000   1.0000   1.0000   1.0000   1.0000   1.0000
     1.0000   1.0000   0.0000   0.0000   0.0000   0.0000   0.0000   0.0000
     0.0000   0.0000   0.0000   0.0000   0.0000   0.0000   0.0000   0.0000
     0.0000   0.0000   0.0000   0.0000   0.0000   0.0000   0.0000   0.0000
     0.0000   0.0000   0.0000   0.0000

          k = 0.0000-0.5774-0.3121 (  1924 PWs)   bands (ev):

  -116.0072-116.0072 -69.6670 -69.6668 -69.6472 -69.6471 -69.6424 -69.6423
    -7.4877  -7.4877   3.0017   3.0017   3.6890   3.6890   3.8097   3.8098
     4.4245   4.4245   4.5849   4.5849   5.2718   5.2718   7.8728   7.8728
     8.0302   8.0303  14.9218  14.9218  17.7187  17.7187  20.4343  20.4344
    22.9667  22.9668  25.4237  25.4238  30.9787  30.9787  32.2019  32.2019
    34.5460  34.5461  35.7288  35.7288  39.9235  39.9236  41.7587  41.7587
    42.5702  42.5703  44.4235  44.4236

     occupation numbers 
     1.0000   1.0000   1.0000   1.0000   1.0000   1.0000   1.0000   1.0000
     1.0000   1.0000   1.0000   1.0000   1.0000   1.0000   1.0000   1.0000
     1.0000   1.0000   1.0000   1.0000   1.0000   1.0000   1.0000   1.0000
     1.0000   1.0000   0.0000   0.0000   0.0000   0.0000   0.0000   0.0000
     0.0000   0.0000   0.0000   0.0000   0.0000   0.0000   0.0000   0.0000
     0.0000   0.0000   0.0000   0.0000   0.0000   0.0000   0.0000   0.0000
     0.0000   0.0000   0.0000   0.0000

          k =-0.5000-0.2887 0.0000 (  1906 PWs)   bands (ev):

  -116.0072-116.0071 -69.6469 -69.6450 -69.6426 -69.6307 -69.6261 -69.6201
    -7.6185  -7.3782   3.1045   3.4157   3.5192   3.9058   3.9695   3.9787
     4.3219   4.4391   4.5436   4.6888   5.3000   5.6410   6.4630   7.1428
     8.1095   8.6000  15.0073  16.1301  16.9048  17.6505  19.8879  21.6621
    22.4932  23.5185  25.0046  27.8470  28.3676  29.7448  32.3535  34.0584
    34.2762  35.2333  36.6792  36.8583  37.6081  38.6843  40.5816  41.8747
    42.0065  42.5217  42.6303  43.7141

     occupation numbers 
     1.0000   1.0000   1.0000   1.0000   1.0000   1.0000   1.0000   1.0000
     1.0000   1.0000   1.0000   1.0000   1.0000   1.0000   1.0000   1.0000
     1.0000   1.0000   1.0000   1.0000   1.0000   1.0000   1.0000   1.0000
     1.0000   1.0000   0.0000   0.0000   0.0000   0.0000   0.0000   0.0000
     0.0000   0.0000   0.0000   0.0000   0.0000   0.0000   0.0000   0.0000
     0.0000   0.0000   0.0000   0.0000   0.0000   0.0000   0.0000   0.0000
     0.0000   0.0000   0.0000   0.0000

          k =-0.5000-0.2887-0.3121 (  1924 PWs)   bands (ev):

  -116.0072-116.0072 -69.6670 -69.6668 -69.6472 -69.6471 -69.6424 -69.6423
    -7.4877  -7.4877   3.0017   3.0017   3.6890   3.6890   3.8097   3.8098
     4.4245   4.4245   4.5849   4.5849   5.2718   5.2718   7.8728   7.8728
     8.0302   8.0303  14.9218  14.9218  17.7187  17.7187  20.4343  20.4344
    22.9667  22.9668  25.4237  25.4238  30.9787  30.9787  32.2019  32.2019
    34.5460  34.5461  35.7288  35.7288  39.9235  39.9236  41.7587  41.7587
    42.5702  42.5703  44.4235  44.4236

     occupation numbers 
     1.0000   1.0000   1.0000   1.0000   1.0000   1.0000   1.0000   1.0000
     1.0000   1.0000   1.0000   1.0000   1.0000   1.0000   1.0000   1.0000
     1.0000   1.0000   1.0000   1.0000   1.0000   1.0000   1.0000   1.0000
     1.0000   1.0000   0.0000   0.0000   0.0000   0.0000   0.0000   0.0000
     0.0000   0.0000   0.0000   0.0000   0.0000   0.0000   0.0000   0.0000
     0.0000   0.0000   0.0000   0.0000   0.0000   0.0000   0.0000   0.0000
     0.0000   0.0000   0.0000   0.0000

          k =-0.5000-0.8660 0.0000 (  1906 PWs)   bands (ev):

  -116.0072-116.0071 -69.6468 -69.6449 -69.6426 -69.6309 -69.6261 -69.6201
    -7.6188  -7.3781   3.1045   3.4152   3.5181   3.9055   3.9686   3.9795
     4.3221   4.4389   4.5438   4.6895   5.3007   5.6421   6.4618   7.1433
     8.1110   8.6005  15.0067  16.1300  16.9029  17.6499  19.8895  21.6619
    22.4934  23.5193  25.0036  27.8493  28.3664  29.7460  32.3513  34.0583
    34.2750  35.2330  36.6791  36.8555  37.6074  38.6858  40.5818  41.8747
    42.0064  42.5232  42.6329  43.7143

     occupation numbers 
     1.0000   1.0000   1.0000   1.0000   1.0000   1.0000   1.0000   1.0000
     1.0000   1.0000   1.0000   1.0000   1.0000   1.0000   1.0000   1.0000
     1.0000   1.0000   1.0000   1.0000   1.0000   1.0000   1.0000   1.0000
     1.0000   1.0000   0.0000   0.0000   0.0000   0.0000   0.0000   0.0000
     0.0000   0.0000   0.0000   0.0000   0.0000   0.0000   0.0000   0.0000
     0.0000   0.0000   0.0000   0.0000   0.0000   0.0000   0.0000   0.0000
     0.0000   0.0000   0.0000   0.0000

          k =-0.5000-0.8660-0.3121 (  1924 PWs)   bands (ev):

  -116.0072-116.0072 -69.6669 -69.6667 -69.6473 -69.6473 -69.6423 -69.6423
    -7.4878  -7.4878   3.0017   3.0017   3.6881   3.6881   3.8100   3.8101
     4.4244   4.4244   4.5851   4.5851   5.2723   5.2723   7.8733   7.8733
     8.0304   8.0304  14.9221  14.9221  17.7177  17.7178  20.4344  20.4345
    22.9673  22.9674  25.4227  25.4228  30.9792  30.9792  32.2024  32.2024
    34.5454  34.5454  35.7274  35.7275  39.9240  39.9240  41.7598  41.7599
    42.5718  42.5719  44.4234  44.4234

     occupation numbers 
     1.0000   1.0000   1.0000   1.0000   1.0000   1.0000   1.0000   1.0000
     1.0000   1.0000   1.0000   1.0000   1.0000   1.0000   1.0000   1.0000
     1.0000   1.0000   1.0000   1.0000   1.0000   1.0000   1.0000   1.0000
     1.0000   1.0000   0.0000   0.0000   0.0000   0.0000   0.0000   0.0000
     0.0000   0.0000   0.0000   0.0000   0.0000   0.0000   0.0000   0.0000
     0.0000   0.0000   0.0000   0.0000   0.0000   0.0000   0.0000   0.0000
     0.0000   0.0000   0.0000   0.0000

 ------ SPIN DOWN ----------


          k = 0.0000 0.0000 0.0000 (  1907 PWs)   bands (ev):

  -116.0074-116.0072 -69.6645 -69.6578 -69.6577 -69.6259 -69.6258 -69.6121
    -8.3578  -7.5735   3.2334   3.2342   3.3989   3.4275   3.4279   3.7109
     4.2622   4.2625   4.3675   4.3677   4.9619   8.6561   8.6573   9.4360
     9.4569   9.4569  10.0390  14.3047  17.5743  22.0018  22.0030  23.2312
    23.2786  23.2820  25.7032  27.5091  27.5105  29.0412  29.1147  29.1158
    30.2634  32.2350  34.2643  34.2679  36.8269  37.8225  37.8247  38.1090
    40.4063  40.4088  43.8498  43.8525

     occupation numbers 
     1.0000   1.0000   1.0000   1.0000   1.0000   1.0000   1.0000   1.0000
     1.0000   1.0000   1.0000   1.0000   1.0000   1.0000   1.0000   1.0000
     1.0000   1.0000   1.0000   1.0000   1.0000   1.0000   1.0000   1.0000
     1.0000   1.0000   0.0000   0.0000   0.0000   0.0000   0.0000   0.0000
     0.0000   0.0000   0.0000   0.0000   0.0000   0.0000   0.0000   0.0000
     0.0000   0.0000   0.0000   0.0000   0.0000   0.0000   0.0000   0.0000
     0.0000   0.0000   0.0000   0.0000

          k = 0.0000 0.0000-0.3121 (  1894 PWs)   bands (ev):

  -116.0073-116.0073 -69.6841 -69.6838 -69.6057 -69.6057 -69.6056 -69.6056
    -7.9774  -7.9774   3.1274   3.1275   3.3590   3.3590   3.3597   3.3597
     4.3711   4.3711   4.3712   4.3712   6.9798   6.9799   9.1065   9.1065
     9.1073   9.1073  12.7546  12.7546  19.2278  19.2278  22.3086  22.3086
    22.3109  22.3109  27.3094  27.3095  29.5448  29.5448  29.5463  29.5463
    33.7325  33.7326  34.2933  34.2934  34.2946  34.2946  37.7017  37.7018
    41.1771  41.1771  41.1784  41.1784

     occupation numbers 
     1.0000   1.0000   1.0000   1.0000   1.0000   1.0000   1.0000   1.0000
     1.0000   1.0000   1.0000   1.0000   1.0000   1.0000   1.0000   1.0000
     1.0000   1.0000   1.0000   1.0000   1.0000   1.0000   1.0000   1.0000
     1.0000   1.0000   0.0000   0.0000   0.0000   0.0000   0.0000   0.0000
     0.0000   0.0000   0.0000   0.0000   0.0000   0.0000   0.0000   0.0000
     0.0000   0.0000   0.0000   0.0000   0.0000   0.0000   0.0000   0.0000
     0.0000   0.0000   0.0000   0.0000

          k = 0.0000-0.5774 0.0000 (  1906 PWs)   bands (ev):

  -116.0072-116.0071 -69.6469 -69.6450 -69.6426 -69.6307 -69.6261 -69.6201
    -7.6185  -7.3782   3.1045   3.4157   3.5192   3.9058   3.9695   3.9787
     4.3219   4.4391   4.5436   4.6888   5.3000   5.6410   6.4630   7.1428
     8.1095   8.6000  15.0073  16.1301  16.9048  17.6505  19.8879  21.6621
    22.4932  23.5185  25.0046  27.8470  28.3676  29.7448  32.3535  34.0584
    34.2762  35.2333  36.6792  36.8583  37.6081  38.6843  40.5816  41.8747
    42.0065  42.5217  42.6303  43.7141

     occupation numbers 
     1.0000   1.0000   1.0000   1.0000   1.0000   1.0000   1.0000   1.0000
     1.0000   1.0000   1.0000   1.0000   1.0000   1.0000   1.0000   1.0000
     1.0000   1.0000   1.0000   1.0000   1.0000   1.0000   1.0000   1.0000
     1.0000   1.0000   0.0000   0.0000   0.0000   0.0000   0.0000   0.0000
     0.0000   0.0000   0.0000   0.0000   0.0000   0.0000   0.0000   0.0000
     0.0000   0.0000   0.0000   0.0000   0.0000   0.0000   0.0000   0.0000
     0.0000   0.0000   0.0000   0.0000

          k = 0.0000-0.5774-0.3121 (  1924 PWs)   bands (ev):

  -116.0072-116.0072 -69.6670 -69.6668 -69.6472 -69.6471 -69.6424 -69.6423
    -7.4877  -7.4877   3.0017   3.0017   3.6890   3.6890   3.8097   3.8098
     4.4245   4.4245   4.5849   4.5849   5.2718   5.2718   7.8728   7.8728
     8.0302   8.0303  14.9218  14.9218  17.7187  17.7187  20.4343  20.4344
    22.9667  22.9668  25.4237  25.4238  30.9787  30.9787  32.2019  32.2019
    34.5460  34.5461  35.7288  35.7288  39.9235  39.9236  41.7587  41.7587
    42.5702  42.5703  44.4235  44.4236

     occupation numbers 
     1.0000   1.0000   1.0000   1.0000   1.0000   1.0000   1.0000   1.0000
     1.0000   1.0000   1.0000   1.0000   1.0000   1.0000   1.0000   1.0000
     1.0000   1.0000   1.0000   1.0000   1.0000   1.0000   1.0000   1.0000
     1.0000   1.0000   0.0000   0.0000   0.0000   0.0000   0.0000   0.0000
     0.0000   0.0000   0.0000   0.0000   0.0000   0.0000   0.0000   0.0000
     0.0000   0.0000   0.0000   0.0000   0.0000   0.0000   0.0000   0.0000
     0.0000   0.0000   0.0000   0.0000

          k =-0.5000-0.2887 0.0000 (  1906 PWs)   bands (ev):

  -116.0072-116.0071 -69.6469 -69.6450 -69.6426 -69.6307 -69.6261 -69.6201
    -7.6185  -7.3782   3.1045   3.4157   3.5192   3.9058   3.9695   3.9787
     4.3219   4.4391   4.5436   4.6888   5.3000   5.6410   6.4630   7.1428
     8.1095   8.6000  15.0073  16.1301  16.9048  17.6505  19.8879  21.6621
    22.4932  23.5185  25.0046  27.8470  28.3676  29.7448  32.3535  34.0584
    34.2762  35.2333  36.6792  36.8583  37.6081  38.6843  40.5816  41.8747
    42.0065  42.5217  42.6303  43.7141

     occupation numbers 
     1.0000   1.0000   1.0000   1.0000   1.0000   1.0000   1.0000   1.0000
     1.0000   1.0000   1.0000   1.0000   1.0000   1.0000   1.0000   1.0000
     1.0000   1.0000   1.0000   1.0000   1.0000   1.0000   1.0000   1.0000
     1.0000   1.0000   0.0000   0.0000   0.0000   0.0000   0.0000   0.0000
     0.0000   0.0000   0.0000   0.0000   0.0000   0.0000   0.0000   0.0000
     0.0000   0.0000   0.0000   0.0000   0.0000   0.0000   0.0000   0.0000
     0.0000   0.0000   0.0000   0.0000

          k =-0.5000-0.2887-0.3121 (  1924 PWs)   bands (ev):

  -116.0072-116.0072 -69.6670 -69.6668 -69.6472 -69.6471 -69.6424 -69.6423
    -7.4877  -7.4877   3.0017   3.0017   3.6890   3.6890   3.8097   3.8098
     4.4245   4.4245   4.5849   4.5849   5.2718   5.2718   7.8728   7.8728
     8.0302   8.0303  14.9218  14.9218  17.7187  17.7187  20.4343  20.4344
    22.9667  22.9668  25.4237  25.4238  30.9787  30.9787  32.2019  32.2019
    34.5460  34.5461  35.7288  35.7288  39.9235  39.9236  41.7587  41.7587
    42.5702  42.5703  44.4235  44.4236

     occupation numbers 
     1.0000   1.0000   1.0000   1.0000   1.0000   1.0000   1.0000   1.0000
     1.0000   1.0000   1.0000   1.0000   1.0000   1.0000   1.0000   1.0000
     1.0000   1.0000   1.0000   1.0000   1.0000   1.0000   1.0000   1.0000
     1.0000   1.0000   0.0000   0.0000   0.0000   0.0000   0.0000   0.0000
     0.0000   0.0000   0.0000   0.0000   0.0000   0.0000   0.0000   0.0000
     0.0000   0.0000   0.0000   0.0000   0.0000   0.0000   0.0000   0.0000
     0.0000   0.0000   0.0000   0.0000

          k =-0.5000-0.8660 0.0000 (  1906 PWs)   bands (ev):

  -116.0072-116.0071 -69.6468 -69.6449 -69.6426 -69.6309 -69.6261 -69.6201
    -7.6188  -7.3781   3.1045   3.4152   3.5181   3.9055   3.9686   3.9795
     4.3221   4.4389   4.5438   4.6895   5.3007   5.6421   6.4618   7.1433
     8.1110   8.6005  15.0067  16.1300  16.9029  17.6499  19.8895  21.6619
    22.4934  23.5193  25.0036  27.8493  28.3664  29.7460  32.3513  34.0583
    34.2750  35.2330  36.6791  36.8555  37.6074  38.6858  40.5818  41.8747
    42.0064  42.5232  42.6329  43.7143

     occupation numbers 
     1.0000   1.0000   1.0000   1.0000   1.0000   1.0000   1.0000   1.0000
     1.0000   1.0000   1.0000   1.0000   1.0000   1.0000   1.0000   1.0000
     1.0000   1.0000   1.0000   1.0000   1.0000   1.0000   1.0000   1.0000
     1.0000   1.0000   0.0000   0.0000   0.0000   0.0000   0.0000   0.0000
     0.0000   0.0000   0.0000   0.0000   0.0000   0.0000   0.0000   0.0000
     0.0000   0.0000   0.0000   0.0000   0.0000   0.0000   0.0000   0.0000
     0.0000   0.0000   0.0000   0.0000

          k =-0.5000-0.8660-0.3121 (  1924 PWs)   bands (ev):

  -116.0072-116.0072 -69.6669 -69.6667 -69.6473 -69.6473 -69.6423 -69.6423
    -7.4878  -7.4878   3.0017   3.0017   3.6881   3.6881   3.8100   3.8101
     4.4244   4.4244   4.5851   4.5851   5.2723   5.2723   7.8733   7.8733
     8.0304   8.0304  14.9221  14.9221  17.7177  17.7178  20.4344  20.4345
    22.9673  22.9674  25.4227  25.4228  30.9792  30.9792  32.2024  32.2024
    34.5454  34.5454  35.7274  35.7275  39.9240  39.9240  41.7598  41.7599
    42.5718  42.5719  44.4234  44.4234

     occupation numbers 
     1.0000   1.0000   1.0000   1.0000   1.0000   1.0000   1.0000   1.0000
     1.0000   1.0000   1.0000   1.0000   1.0000   1.0000   1.0000   1.0000
     1.0000   1.0000   1.0000   1.0000   1.0000   1.0000   1.0000   1.0000
     1.0000   1.0000   0.0000   0.0000   0.0000   0.0000   0.0000   0.0000
     0.0000   0.0000   0.0000   0.0000   0.0000   0.0000   0.0000   0.0000
     0.0000   0.0000   0.0000   0.0000   0.0000   0.0000   0.0000   0.0000
     0.0000   0.0000   0.0000   0.0000

     highest occupied, lowest unoccupied level (ev):     9.4569   10.0390

     Writing all to output data dir /scratch/elinscott/materials_cloud_archive/zno/coarse_grid/TMP/kc.save/
 
     init_run     :      0.03s CPU      0.05s WALL (       1 calls)
     electrons    :      0.72s CPU      0.76s WALL (       1 calls)

     Called by init_run:
     wfcinit      :      0.00s CPU      0.00s WALL (       1 calls)
     wfcinit:atom :      0.00s CPU      0.00s WALL (       4 calls)
     wfcinit:wfcr :      0.03s CPU      0.03s WALL (       4 calls)
     potinit      :      0.01s CPU      0.01s WALL (       1 calls)
     hinit0       :      0.02s CPU      0.04s WALL (       1 calls)

     Called by electrons:
     c_bands      :      0.72s CPU      0.76s WALL (       1 calls)
     v_of_rho     :      0.00s CPU      0.00s WALL (       1 calls)
     v_h          :      0.00s CPU      0.00s WALL (       1 calls)
     v_xc         :      0.00s CPU      0.00s WALL (       1 calls)

     Called by c_bands:
     init_us_2    :      0.00s CPU      0.00s WALL (       4 calls)
     init_us_2:cp :      0.00s CPU      0.00s WALL (       4 calls)
     cegterg      :      0.67s CPU      0.70s WALL (       8 calls)

     Called by sum_band:

     Called by *egterg:
     cdiaghg      :      0.25s CPU      0.26s WALL (      96 calls)
     cegterg:over :      0.04s CPU      0.04s WALL (      92 calls)
     cegterg:upda :      0.02s CPU      0.02s WALL (      92 calls)
     cegterg:last :      0.03s CPU      0.03s WALL (      51 calls)
     h_psi        :      0.34s CPU      0.36s WALL (     104 calls)
     g_psi        :      0.00s CPU      0.00s WALL (      92 calls)

     Called by h_psi:
     h_psi:calbec :      0.02s CPU      0.02s WALL (     104 calls)
     vloc_psi     :      0.30s CPU      0.32s WALL (     104 calls)
     add_vuspsi   :      0.01s CPU      0.01s WALL (     104 calls)

     General routines
     calbec       :      0.02s CPU      0.02s WALL (     104 calls)
     fft          :      0.00s CPU      0.01s WALL (       5 calls)
     fftw         :      0.27s CPU      0.28s WALL (    5824 calls)
     davcio       :      0.00s CPU      0.00s WALL (       8 calls)
 
     Parallel routines
 
     PWSCF        :      0.83s CPU      0.91s WALL

 
   This run was terminated on:  11:54:36  12Dec2022            

=------------------------------------------------------------------------------=
   JOB DONE.
=------------------------------------------------------------------------------=
