
     Program PWSCF v.7.1 starts on 12Dec2022 at 11:54:34 

     This program is part of the open-source Quantum ESPRESSO suite
     for quantum simulation of materials; please cite
         "P. Giannozzi et al., J. Phys.:Condens. Matter 21 395502 (2009);
         "P. Giannozzi et al., J. Phys.:Condens. Matter 29 465901 (2017);
         "P. Giannozzi et al., J. Chem. Phys. 152 154105 (2020);
          URL http://www.quantum-espresso.org", 
     in publications or presentations arising from this work. More details at
     http://www.quantum-espresso.org/quote

     Parallel version (MPI), running on    16 processors

     MPI processes distributed on     1 nodes
     73552 MiB available memory on the printing compute node when the environment starts
 
     Reading input from scf.pwi
Warning: card &CELL ignored
Warning: card / ignored

     Current dimensions of program PWSCF are:
     Max number of different atomic species (ntypx) = 10
     Max number of k-points (npk) =  40000
     Max angular momentum in pseudopotentials (lmaxx) =  4
 
     K-points division:     npool     =       4
     R & G space division:  proc/nbgrp/npool/nimage =       4
     Subspace diagonalization in iterative solution of the eigenvalue problem:
     a serial algorithm will be used

 
     Parallelization info
     --------------------
     sticks:   dense  smooth     PW     G-vecs:    dense   smooth      PW
     Min         127     127     37                 3819     3819     627
     Max         128     128     38                 3826     3826     634
     Sum         511     511    151                15291    15291    2527
 
     Using Slab Decomposition
 


     bravais-lattice index     =            4
     lattice parameter (alat)  =       6.1406  a.u.
     unit-cell volume          =     321.2403 (a.u.)^3
     number of atoms/cell      =            4
     number of atomic types    =            2
     number of electrons       =        52.00 (up:  26.00, down:  26.00)
     number of Kohn-Sham states=           26
     kinetic-energy cutoff     =      50.0000  Ry
     charge density cutoff     =     200.0000  Ry
     scf convergence threshold =      1.0E-07
     mixing beta               =       0.7000
     number of iterations used =            8  plain     mixing
     Exchange-correlation= SLA  PW   NOGX NOGC
                           (   1   4   0   0   0   0   0)

     celldm(1)=   6.140570  celldm(2)=   0.000000  celldm(3)=   1.602040
     celldm(4)=   0.000000  celldm(5)=   0.000000  celldm(6)=   0.000000

     crystal axes: (cart. coord. in units of alat)
               a(1) = (   1.000000   0.000000   0.000000 )  
               a(2) = (  -0.500000   0.866025   0.000000 )  
               a(3) = (   0.000000   0.000000   1.602040 )  

     reciprocal axes: (cart. coord. in units 2 pi/alat)
               b(1) = (  1.000000  0.577350  0.000000 )  
               b(2) = (  0.000000  1.154701  0.000000 )  
               b(3) = (  0.000000  0.000000  0.624204 )  


     PseudoPot. # 1 for Zn read from file:
     /home/elinscott/code/koopmans/src/koopmans/pseudopotentials/pseudo_dojo_standard_v0.4.1/lda/Zn.upf
     MD5 check sum: 492e12d15cacde48a98384ec5dd6fb31
     Pseudo is Norm-conserving + core correction, Zval = 20.0
     Generated using ONCVPSP code by D. R. Hamann
     Using radial grid of 1296 points,  6 beta functions with: 
                l(1) =   0
                l(2) =   0
                l(3) =   1
                l(4) =   1
                l(5) =   2
                l(6) =   2

     PseudoPot. # 2 for O  read from file:
     /home/elinscott/code/koopmans/src/koopmans/pseudopotentials/pseudo_dojo_standard_v0.4.1/lda/O.upf
     MD5 check sum: 86ed389b6a5065e60c3f64c68a612de9
     Pseudo is Norm-conserving + core correction, Zval =  6.0
     Generated using ONCVPSP code by D. R. Hamann
     Using radial grid of  926 points,  5 beta functions with: 
                l(1) =   0
                l(2) =   0
                l(3) =   1
                l(4) =   1
                l(5) =   2

     atomic species   valence    mass     pseudopotential
        Zn            20.00    65.38000     Zn( 1.00)
        O              6.00    15.99900     O ( 1.00)

     Starting magnetic structure 
     atomic species   magnetization
        Zn           0.000
        O            0.000

      4 Sym. Ops. (no inversion) found ( 2 have fractional translation)


                                    s                        frac. trans.

      isym =  1     identity                                     

 cryst.   s( 1) = (     1          0          0      )
                  (     0          1          0      )
                  (     0          0          1      )

 cart.    s( 1) = (  1.0000000  0.0000000  0.0000000 )
                  (  0.0000000  1.0000000  0.0000000 )
                  (  0.0000000  0.0000000  1.0000000 )


      isym =  2     180 deg rotation - cart. axis [0,0,1]        

 cryst.   s( 2) = (    -1          0          0      )    f =(  0.0000000 )
                  (     0         -1          0      )       (  0.0000000 )
                  (     0          0          1      )       (  0.5000000 )

 cart.    s( 2) = ( -1.0000000  0.0000000  0.0000000 )    f =(  0.0000000 )
                  (  0.0000000 -1.0000000  0.0000000 )       (  0.0000000 )
                  (  0.0000000  0.0000000  1.0000000 )       (  0.8010200 )


      isym =  3     inv. 180 deg rotation - cryst. axis [1,-1,0] 

 cryst.   s( 3) = (     0          1          0      )    f =(  0.0000000 )
                  (     1          0          0      )       (  0.0000000 )
                  (     0          0          1      )       (  0.5000000 )

 cart.    s( 3) = ( -0.5000000  0.8660254  0.0000000 )    f =(  0.0000000 )
                  (  0.8660254  0.5000000  0.0000000 )       (  0.0000000 )
                  (  0.0000000  0.0000000  1.0000000 )       (  0.8010200 )


      isym =  4     inv. 180 deg rotation - cryst. axis [1,1,0]  

 cryst.   s( 4) = (     0         -1          0      )
                  (    -1          0          0      )
                  (     0          0          1      )

 cart.    s( 4) = (  0.5000000 -0.8660254  0.0000000 )
                  ( -0.8660254 -0.5000000  0.0000000 )
                  (  0.0000000  0.0000000  1.0000000 )


     point group C_2v (mm2) 
     there are  4 classes
     the character table:

       E     C2    s_v   s_v' 
A_1    1.00  1.00  1.00  1.00
A_2    1.00  1.00 -1.00 -1.00
B_1    1.00 -1.00  1.00 -1.00
B_2    1.00 -1.00 -1.00  1.00

     the symmetry operations in each class and the name of the first element:

     E        1
          identity                                               
     C2       2
          180 deg rotation - cart. axis [0,0,1]                  
     s_v      3
          inv. 180 deg rotation - cryst. axis [1,-1,0]           
     s_v'     4
          inv. 180 deg rotation - cryst. axis [1,1,0]            

   Cartesian axes

     site n.     atom                  positions (alat units)
         1           Zn  tau(   1) = (  -0.0000500   0.5773791   0.8010200  )
         2           Zn  tau(   2) = (   0.5000500   0.2886463   0.0000000  )
         3           O   tau(   3) = (  -0.0000500   0.5773791   0.1878392  )
         4           O   tau(   4) = (   0.5000500   0.2886463   0.9888592  )

   Crystallographic axes

     site n.     atom                  positions (cryst. coord.)
         1           Zn  tau(   1) = (  0.3333000  0.6667000  0.5000000  )
         2           Zn  tau(   2) = (  0.6667000  0.3333000  0.0000000  )
         3           O   tau(   3) = (  0.3333000  0.6667000  0.1172500  )
         4           O   tau(   4) = (  0.6667000  0.3333000  0.6172500  )

     number of k points=     6
                       cart. coord. in units 2pi/alat
        k(    1) = (   0.0000000   0.0000000   0.0000000), wk =   0.1250000
        k(    2) = (   0.0000000   0.0000000  -0.3121021), wk =   0.1250000
        k(    3) = (   0.0000000  -0.5773503   0.0000000), wk =   0.2500000
        k(    4) = (   0.0000000  -0.5773503  -0.3121021), wk =   0.2500000
        k(    5) = (   0.5000000  -0.2886751   0.0000000), wk =   0.1250000
        k(    6) = (   0.5000000  -0.2886751  -0.3121021), wk =   0.1250000

                       cryst. coord.
        k(    1) = (   0.0000000   0.0000000   0.0000000), wk =   0.1250000
        k(    2) = (   0.0000000   0.0000000  -0.5000000), wk =   0.1250000
        k(    3) = (   0.0000000  -0.5000000   0.0000000), wk =   0.2500000
        k(    4) = (   0.0000000  -0.5000000  -0.5000000), wk =   0.2500000
        k(    5) = (   0.5000000  -0.5000000   0.0000000), wk =   0.1250000
        k(    6) = (   0.5000000  -0.5000000  -0.5000000), wk =   0.1250000

     Dense  grid:    15291 G-vectors     FFT dimensions: (  27,  27,  48)

     Dynamical RAM for                 wfc:       0.19 MB

     Dynamical RAM for     wfc (w. buffer):       0.76 MB

     Dynamical RAM for           str. fact:       0.12 MB

     Dynamical RAM for           local pot:       0.00 MB

     Dynamical RAM for          nlocal pot:       0.45 MB

     Dynamical RAM for                qrad:       2.27 MB

     Dynamical RAM for          rho,v,vnew:       0.75 MB

     Dynamical RAM for               rhoin:       0.25 MB

     Dynamical RAM for            rho*nmix:       1.87 MB

     Dynamical RAM for           G-vectors:       0.25 MB

     Dynamical RAM for          h,s,v(r/c):       0.12 MB

     Dynamical RAM for          <psi|beta>:       0.02 MB

     Dynamical RAM for                 psi:       0.38 MB

     Dynamical RAM for                hpsi:       0.38 MB

     Dynamical RAM for      wfcinit/wfcrot:       0.43 MB

     Estimated static dynamical RAM per process >       5.43 MB

     Estimated max dynamical RAM per process >       8.20 MB

     Estimated total dynamical RAM >     108.83 MB

     Check: negative core charge=   -0.000270
     Generating pointlists ...
     new r_m :   0.2504 (alat units)  1.5377 (a.u.) for type    1
     new r_m :   0.2504 (alat units)  1.5377 (a.u.) for type    2

     Initial potential from superposition of free atoms

     starting charge      51.9998, renormalised to      52.0000
     Starting wfcs are   28 randomized atomic wfcs

     total cpu time spent up to now is        0.1 secs

     Self-consistent Calculation

     iteration #  1     ecut=    50.00 Ry     beta= 0.70
     Davidson diagonalization with overlap

---- Real-time Memory Report at c_bands before calling an iterative solver
           100 MiB given to the printing process from OS
             0 MiB allocation reported by mallinfo(arena+hblkhd)
         73316 MiB available memory on the node where the printing process lives
------------------
     ethr =  1.00E-02,  avg # of iterations =  2.0

     total cpu time spent up to now is        0.2 secs

     total energy              =    -899.93039311 Ry
     estimated scf accuracy    <       1.02272337 Ry

     total magnetization       =     0.00 Bohr mag/cell
     absolute magnetization    =     0.00 Bohr mag/cell

     iteration #  2     ecut=    50.00 Ry     beta= 0.70
     Davidson diagonalization with overlap

---- Real-time Memory Report at c_bands before calling an iterative solver
           104 MiB given to the printing process from OS
             0 MiB allocation reported by mallinfo(arena+hblkhd)
         73289 MiB available memory on the node where the printing process lives
------------------
     ethr =  1.97E-03,  avg # of iterations =  3.0

     total cpu time spent up to now is        0.2 secs

     total energy              =    -900.19661605 Ry
     estimated scf accuracy    <       1.28487449 Ry

     total magnetization       =     0.00 Bohr mag/cell
     absolute magnetization    =     0.00 Bohr mag/cell

     iteration #  3     ecut=    50.00 Ry     beta= 0.70
     Davidson diagonalization with overlap

---- Real-time Memory Report at c_bands before calling an iterative solver
           107 MiB given to the printing process from OS
             0 MiB allocation reported by mallinfo(arena+hblkhd)
         73285 MiB available memory on the node where the printing process lives
------------------
     ethr =  1.97E-03,  avg # of iterations =  2.3

     total cpu time spent up to now is        0.3 secs

     total energy              =    -900.42980278 Ry
     estimated scf accuracy    <       0.00833023 Ry

     total magnetization       =     0.00 Bohr mag/cell
     absolute magnetization    =     0.00 Bohr mag/cell

     iteration #  4     ecut=    50.00 Ry     beta= 0.70
     Davidson diagonalization with overlap

---- Real-time Memory Report at c_bands before calling an iterative solver
           107 MiB given to the printing process from OS
             0 MiB allocation reported by mallinfo(arena+hblkhd)
         73283 MiB available memory on the node where the printing process lives
------------------
     ethr =  1.60E-05,  avg # of iterations =  4.2

     total cpu time spent up to now is        0.3 secs

     total energy              =    -900.43515136 Ry
     estimated scf accuracy    <       0.00775834 Ry

     total magnetization       =     0.00 Bohr mag/cell
     absolute magnetization    =     0.00 Bohr mag/cell

     iteration #  5     ecut=    50.00 Ry     beta= 0.70
     Davidson diagonalization with overlap

---- Real-time Memory Report at c_bands before calling an iterative solver
           108 MiB given to the printing process from OS
             0 MiB allocation reported by mallinfo(arena+hblkhd)
         73281 MiB available memory on the node where the printing process lives
------------------
     ethr =  1.49E-05,  avg # of iterations =  2.0

     total cpu time spent up to now is        0.4 secs

     total energy              =    -900.43599533 Ry
     estimated scf accuracy    <       0.00039476 Ry

     total magnetization       =     0.00 Bohr mag/cell
     absolute magnetization    =     0.00 Bohr mag/cell

     iteration #  6     ecut=    50.00 Ry     beta= 0.70
     Davidson diagonalization with overlap

---- Real-time Memory Report at c_bands before calling an iterative solver
           109 MiB given to the printing process from OS
             0 MiB allocation reported by mallinfo(arena+hblkhd)
         73280 MiB available memory on the node where the printing process lives
------------------
     ethr =  7.59E-07,  avg # of iterations =  3.0

     total cpu time spent up to now is        0.4 secs

     total energy              =    -900.43614228 Ry
     estimated scf accuracy    <       0.00002868 Ry

     total magnetization       =     0.00 Bohr mag/cell
     absolute magnetization    =     0.00 Bohr mag/cell

     iteration #  7     ecut=    50.00 Ry     beta= 0.70
     Davidson diagonalization with overlap

---- Real-time Memory Report at c_bands before calling an iterative solver
           110 MiB given to the printing process from OS
             0 MiB allocation reported by mallinfo(arena+hblkhd)
         73278 MiB available memory on the node where the printing process lives
------------------
     ethr =  5.52E-08,  avg # of iterations =  2.5

     total cpu time spent up to now is        0.5 secs

     total energy              =    -900.43614071 Ry
     estimated scf accuracy    <       0.00001083 Ry

     total magnetization       =     0.00 Bohr mag/cell
     absolute magnetization    =     0.00 Bohr mag/cell

     iteration #  8     ecut=    50.00 Ry     beta= 0.70
     Davidson diagonalization with overlap

---- Real-time Memory Report at c_bands before calling an iterative solver
           110 MiB given to the printing process from OS
             0 MiB allocation reported by mallinfo(arena+hblkhd)
         73277 MiB available memory on the node where the printing process lives
------------------
     ethr =  2.08E-08,  avg # of iterations =  2.0

     total cpu time spent up to now is        0.5 secs

     total energy              =    -900.43614104 Ry
     estimated scf accuracy    <       0.00000155 Ry

     total magnetization       =     0.00 Bohr mag/cell
     absolute magnetization    =     0.00 Bohr mag/cell

     iteration #  9     ecut=    50.00 Ry     beta= 0.70
     Davidson diagonalization with overlap

---- Real-time Memory Report at c_bands before calling an iterative solver
           111 MiB given to the printing process from OS
             0 MiB allocation reported by mallinfo(arena+hblkhd)
         73276 MiB available memory on the node where the printing process lives
------------------
     ethr =  2.99E-09,  avg # of iterations =  2.5
 
     Magnetic moment per site  (integrated on atomic sphere of radius R)
     atom   1 (R=0.250)  charge= 17.3857  magn=  0.0000
     atom   2 (R=0.250)  charge= 17.3857  magn=  0.0000
     atom   3 (R=0.250)  charge=  5.4199  magn=  0.0000
     atom   4 (R=0.250)  charge=  5.4199  magn=  0.0000

     total cpu time spent up to now is        0.6 secs

     End of self-consistent calculation

 ------ SPIN UP ------------


          k = 0.0000 0.0000 0.0000 (  1907 PWs)   bands (ev):

  -116.0071-116.0070 -69.6641 -69.6575 -69.6575 -69.6256 -69.6255 -69.6118
    -8.3590  -7.5749   3.2333   3.2341   3.3988   3.4275   3.4279   3.7104
     4.2625   4.2628   4.3678   4.3680   4.9620   8.6551   8.6563   9.4348
     9.4558   9.4558

     occupation numbers 
     1.0000   1.0000   1.0000   1.0000   1.0000   1.0000   1.0000   1.0000
     1.0000   1.0000   1.0000   1.0000   1.0000   1.0000   1.0000   1.0000
     1.0000   1.0000   1.0000   1.0000   1.0000   1.0000   1.0000   1.0000
     1.0000   1.0000

          k = 0.0000 0.0000-0.3121 (  1894 PWs)   bands (ev):

  -116.0070-116.0070 -69.6836 -69.6836 -69.6054 -69.6054 -69.6053 -69.6053
    -7.9788  -7.9788   3.1273   3.1273   3.3590   3.3590   3.3596   3.3596
     4.3714   4.3714   4.3715   4.3715   6.9793   6.9793   9.1055   9.1055
     9.1062   9.1062

     occupation numbers 
     1.0000   1.0000   1.0000   1.0000   1.0000   1.0000   1.0000   1.0000
     1.0000   1.0000   1.0000   1.0000   1.0000   1.0000   1.0000   1.0000
     1.0000   1.0000   1.0000   1.0000   1.0000   1.0000   1.0000   1.0000
     1.0000   1.0000

          k = 0.0000-0.5774 0.0000 (  1906 PWs)   bands (ev):

  -116.0069-116.0068 -69.6465 -69.6447 -69.6422 -69.6304 -69.6258 -69.6198
    -7.6199  -7.3797   3.1044   3.4155   3.5192   3.9059   3.9696   3.9785
     4.3222   4.4394   4.5439   4.6890   5.2999   5.6404   6.4623   7.1419
     8.1086   8.5990

     occupation numbers 
     1.0000   1.0000   1.0000   1.0000   1.0000   1.0000   1.0000   1.0000
     1.0000   1.0000   1.0000   1.0000   1.0000   1.0000   1.0000   1.0000
     1.0000   1.0000   1.0000   1.0000   1.0000   1.0000   1.0000   1.0000
     1.0000   1.0000

          k = 0.0000-0.5774-0.3121 (  1924 PWs)   bands (ev):

  -116.0069-116.0069 -69.6665 -69.6665 -69.6468 -69.6468 -69.6421 -69.6421
    -7.4891  -7.4891   3.0015   3.0015   3.6890   3.6890   3.8097   3.8097
     4.4248   4.4248   4.5851   4.5851   5.2716   5.2716   7.8718   7.8718
     8.0293   8.0293

     occupation numbers 
     1.0000   1.0000   1.0000   1.0000   1.0000   1.0000   1.0000   1.0000
     1.0000   1.0000   1.0000   1.0000   1.0000   1.0000   1.0000   1.0000
     1.0000   1.0000   1.0000   1.0000   1.0000   1.0000   1.0000   1.0000
     1.0000   1.0000

          k = 0.5000-0.2887 0.0000 (  1906 PWs)   bands (ev):

  -116.0069-116.0068 -69.6465 -69.6446 -69.6423 -69.6306 -69.6258 -69.6198
    -7.6202  -7.3795   3.1044   3.4150   3.5181   3.9056   3.9686   3.9793
     4.3224   4.4392   4.5441   4.6897   5.3005   5.6415   6.4611   7.1424
     8.1102   8.5995

     occupation numbers 
     1.0000   1.0000   1.0000   1.0000   1.0000   1.0000   1.0000   1.0000
     1.0000   1.0000   1.0000   1.0000   1.0000   1.0000   1.0000   1.0000
     1.0000   1.0000   1.0000   1.0000   1.0000   1.0000   1.0000   1.0000
     1.0000   1.0000

          k = 0.5000-0.2887-0.3121 (  1924 PWs)   bands (ev):

  -116.0069-116.0069 -69.6664 -69.6664 -69.6470 -69.6470 -69.6420 -69.6420
    -7.4892  -7.4892   3.0014   3.0014   3.6881   3.6881   3.8100   3.8100
     4.4247   4.4247   4.5854   4.5854   5.2721   5.2721   7.8723   7.8723
     8.0294   8.0294

     occupation numbers 
     1.0000   1.0000   1.0000   1.0000   1.0000   1.0000   1.0000   1.0000
     1.0000   1.0000   1.0000   1.0000   1.0000   1.0000   1.0000   1.0000
     1.0000   1.0000   1.0000   1.0000   1.0000   1.0000   1.0000   1.0000
     1.0000   1.0000

 ------ SPIN DOWN ----------


          k = 0.0000 0.0000 0.0000 (  1907 PWs)   bands (ev):

  -116.0071-116.0070 -69.6641 -69.6575 -69.6575 -69.6256 -69.6255 -69.6118
    -8.3590  -7.5749   3.2333   3.2341   3.3988   3.4275   3.4279   3.7104
     4.2625   4.2628   4.3678   4.3680   4.9620   8.6551   8.6563   9.4348
     9.4558   9.4558

     occupation numbers 
     1.0000   1.0000   1.0000   1.0000   1.0000   1.0000   1.0000   1.0000
     1.0000   1.0000   1.0000   1.0000   1.0000   1.0000   1.0000   1.0000
     1.0000   1.0000   1.0000   1.0000   1.0000   1.0000   1.0000   1.0000
     1.0000   1.0000

          k = 0.0000 0.0000-0.3121 (  1894 PWs)   bands (ev):

  -116.0070-116.0070 -69.6836 -69.6836 -69.6054 -69.6054 -69.6053 -69.6053
    -7.9788  -7.9788   3.1273   3.1273   3.3590   3.3590   3.3596   3.3596
     4.3714   4.3714   4.3715   4.3715   6.9793   6.9793   9.1055   9.1055
     9.1062   9.1062

     occupation numbers 
     1.0000   1.0000   1.0000   1.0000   1.0000   1.0000   1.0000   1.0000
     1.0000   1.0000   1.0000   1.0000   1.0000   1.0000   1.0000   1.0000
     1.0000   1.0000   1.0000   1.0000   1.0000   1.0000   1.0000   1.0000
     1.0000   1.0000

          k = 0.0000-0.5774 0.0000 (  1906 PWs)   bands (ev):

  -116.0069-116.0068 -69.6465 -69.6447 -69.6422 -69.6304 -69.6258 -69.6198
    -7.6199  -7.3797   3.1044   3.4155   3.5192   3.9059   3.9696   3.9785
     4.3222   4.4394   4.5439   4.6890   5.2999   5.6404   6.4623   7.1419
     8.1086   8.5990

     occupation numbers 
     1.0000   1.0000   1.0000   1.0000   1.0000   1.0000   1.0000   1.0000
     1.0000   1.0000   1.0000   1.0000   1.0000   1.0000   1.0000   1.0000
     1.0000   1.0000   1.0000   1.0000   1.0000   1.0000   1.0000   1.0000
     1.0000   1.0000

          k = 0.0000-0.5774-0.3121 (  1924 PWs)   bands (ev):

  -116.0069-116.0069 -69.6665 -69.6665 -69.6468 -69.6468 -69.6421 -69.6421
    -7.4891  -7.4891   3.0015   3.0015   3.6890   3.6890   3.8097   3.8097
     4.4248   4.4248   4.5851   4.5851   5.2716   5.2716   7.8718   7.8718
     8.0293   8.0293

     occupation numbers 
     1.0000   1.0000   1.0000   1.0000   1.0000   1.0000   1.0000   1.0000
     1.0000   1.0000   1.0000   1.0000   1.0000   1.0000   1.0000   1.0000
     1.0000   1.0000   1.0000   1.0000   1.0000   1.0000   1.0000   1.0000
     1.0000   1.0000

          k = 0.5000-0.2887 0.0000 (  1906 PWs)   bands (ev):

  -116.0069-116.0068 -69.6465 -69.6446 -69.6423 -69.6306 -69.6258 -69.6198
    -7.6202  -7.3795   3.1044   3.4150   3.5181   3.9056   3.9686   3.9793
     4.3224   4.4392   4.5441   4.6897   5.3005   5.6415   6.4611   7.1424
     8.1102   8.5995

     occupation numbers 
     1.0000   1.0000   1.0000   1.0000   1.0000   1.0000   1.0000   1.0000
     1.0000   1.0000   1.0000   1.0000   1.0000   1.0000   1.0000   1.0000
     1.0000   1.0000   1.0000   1.0000   1.0000   1.0000   1.0000   1.0000
     1.0000   1.0000

          k = 0.5000-0.2887-0.3121 (  1924 PWs)   bands (ev):

  -116.0069-116.0069 -69.6664 -69.6664 -69.6470 -69.6470 -69.6420 -69.6420
    -7.4892  -7.4892   3.0014   3.0014   3.6881   3.6881   3.8100   3.8100
     4.4247   4.4247   4.5854   4.5854   5.2721   5.2721   7.8723   7.8723
     8.0294   8.0294

     occupation numbers 
     1.0000   1.0000   1.0000   1.0000   1.0000   1.0000   1.0000   1.0000
     1.0000   1.0000   1.0000   1.0000   1.0000   1.0000   1.0000   1.0000
     1.0000   1.0000   1.0000   1.0000   1.0000   1.0000   1.0000   1.0000
     1.0000   1.0000

     highest occupied level (ev):     9.4558

!    total energy              =    -900.43614147 Ry
     estimated scf accuracy    <       0.00000003 Ry

     The total energy is the sum of the following terms:
     one-electron contribution =    -609.72232403 Ry
     hartree contribution      =     321.42404454 Ry
     xc contribution           =    -104.72434753 Ry
     ewald contribution        =    -507.41351445 Ry

     total magnetization       =     0.00 Bohr mag/cell
     absolute magnetization    =     0.00 Bohr mag/cell

     convergence has been achieved in   9 iterations

     Writing all to output data dir /scratch/elinscott/materials_cloud_archive/zno/coarse_grid/TMP/kc.save/
 
     init_run     :      0.06s CPU      0.08s WALL (       1 calls)
     electrons    :      0.42s CPU      0.45s WALL (       1 calls)

     Called by init_run:
     wfcinit      :      0.02s CPU      0.02s WALL (       1 calls)
     wfcinit:atom :      0.00s CPU      0.00s WALL (       3 calls)
     wfcinit:wfcr :      0.01s CPU      0.01s WALL (       3 calls)
     potinit      :      0.01s CPU      0.01s WALL (       1 calls)
     hinit0       :      0.02s CPU      0.04s WALL (       1 calls)

     Called by electrons:
     c_bands      :      0.35s CPU      0.36s WALL (       9 calls)
     sum_band     :      0.05s CPU      0.05s WALL (       9 calls)
     v_of_rho     :      0.01s CPU      0.02s WALL (      10 calls)
     v_h          :      0.00s CPU      0.00s WALL (      10 calls)
     v_xc         :      0.01s CPU      0.01s WALL (      10 calls)
     mix_rho      :      0.01s CPU      0.01s WALL (       9 calls)

     Called by c_bands:
     init_us_2    :      0.01s CPU      0.01s WALL (      57 calls)
     init_us_2:cp :      0.01s CPU      0.01s WALL (      57 calls)
     cegterg      :      0.29s CPU      0.30s WALL (      27 calls)

     Called by sum_band:
     sum_band:wei :      0.00s CPU      0.00s WALL (       9 calls)
     sum_band:loo :      0.04s CPU      0.05s WALL (       9 calls)
     sum_band:buf :      0.00s CPU      0.00s WALL (      27 calls)
     sum_band:ini :      0.00s CPU      0.00s WALL (      27 calls)

     Called by *egterg:
     cdiaghg      :      0.06s CPU      0.06s WALL (     100 calls)
     cegterg:over :      0.01s CPU      0.01s WALL (      73 calls)
     cegterg:upda :      0.01s CPU      0.01s WALL (      73 calls)
     cegterg:last :      0.01s CPU      0.01s WALL (      57 calls)
     h_psi        :      0.21s CPU      0.22s WALL (     103 calls)
     g_psi        :      0.00s CPU      0.00s WALL (      73 calls)

     Called by h_psi:
     h_psi:calbec :      0.01s CPU      0.01s WALL (     103 calls)
     vloc_psi     :      0.19s CPU      0.20s WALL (     103 calls)
     add_vuspsi   :      0.01s CPU      0.01s WALL (     103 calls)

     General routines
     calbec       :      0.01s CPU      0.01s WALL (     103 calls)
     fft          :      0.01s CPU      0.02s WALL (      48 calls)
     ffts         :      0.00s CPU      0.00s WALL (      18 calls)
     fftw         :      0.19s CPU      0.20s WALL (    4540 calls)
 
     Parallel routines
 
     PWSCF        :      0.53s CPU      0.58s WALL

 
   This run was terminated on:  11:54:34  12Dec2022            

=------------------------------------------------------------------------------=
   JOB DONE.
=------------------------------------------------------------------------------=
