
     Program PWSCF v.7.1 starts on  7Feb2023 at 15: 5: 1 

     This program is part of the open-source Quantum ESPRESSO suite
     for quantum simulation of materials; please cite
         "P. Giannozzi et al., J. Phys.:Condens. Matter 21 395502 (2009);
         "P. Giannozzi et al., J. Phys.:Condens. Matter 29 465901 (2017);
         "P. Giannozzi et al., J. Chem. Phys. 152 154105 (2020);
          URL http://www.quantum-espresso.org", 
     in publications or presentations arising from this work. More details at
     http://www.quantum-espresso.org/quote

     Parallel version (MPI), running on    16 processors

     MPI processes distributed on     1 nodes
     89570 MiB available memory on the printing compute node when the environment starts
 
     Reading input from nscf.pwi
Warning: card &IONS ignored
Warning: card / ignored
Warning: card &CELL ignored
Warning: card / ignored

     Current dimensions of program PWSCF are:
     Max number of different atomic species (ntypx) = 10
     Max number of k-points (npk) =  40000
     Max angular momentum in pseudopotentials (lmaxx) =  4

     Atomic positions and unit cell read from directory:
     /scratch/elinscott/materials_cloud_archive/si/init/TMP/kc.save/
     Atomic positions from file used, from input discarded
 
 
     K-points division:     npool     =       4
     R & G space division:  proc/nbgrp/npool/nimage =       4
     Subspace diagonalization in iterative solution of the eigenvalue problem:
     a serial algorithm will be used

 
     Parallelization info
     --------------------
     sticks:   dense  smooth     PW     G-vecs:    dense   smooth      PW
     Min         214     214     63                 4221     4221     684
     Max         215     215     64                 4224     4224     688
     Sum         859     859    253                16889    16889    2741
 
     Using Slab Decomposition
 


     bravais-lattice index     =            2
     lattice parameter (alat)  =      10.2622  a.u.
     unit-cell volume          =     270.1851 (a.u.)^3
     number of atoms/cell      =            2
     number of atomic types    =            1
     number of electrons       =         8.00
     number of Kohn-Sham states=           20
     kinetic-energy cutoff     =      60.0000  Ry
     charge density cutoff     =     240.0000  Ry
     Exchange-correlation= PBE
                           (   1   4   3   4   0   0   0)

     celldm(1)=  10.262200  celldm(2)=   0.000000  celldm(3)=   0.000000
     celldm(4)=   0.000000  celldm(5)=   0.000000  celldm(6)=   0.000000

     crystal axes: (cart. coord. in units of alat)
               a(1) = (  -0.500000   0.000000   0.500000 )  
               a(2) = (   0.000000   0.500000   0.500000 )  
               a(3) = (  -0.500000   0.500000   0.000000 )  

     reciprocal axes: (cart. coord. in units 2 pi/alat)
               b(1) = ( -1.000000 -1.000000  1.000000 )  
               b(2) = (  1.000000  1.000000  1.000000 )  
               b(3) = ( -1.000000  1.000000 -1.000000 )  


     PseudoPot. # 1 for Si read from file:
     /home/elinscott/code/koopmans/src/koopmans/pseudopotentials/sg15_v1.2/pbe/Si_ONCV_PBE-1.2.upf
     MD5 check sum: 7f029a58b69e3aa87b46a36c608bf45e
     Pseudo is Norm-conserving, Zval =  4.0
     Generated using ONCVPSP code by D. R. Hamann
     Using radial grid of  602 points,  4 beta functions with: 
                l(1) =   0
                l(2) =   0
                l(3) =   1
                l(4) =   1

     atomic species   valence    mass     pseudopotential
        Si             4.00    28.08500     Si( 1.00)

     No symmetry found


                                    s                        frac. trans.

      isym =  1     identity                                     

 cryst.   s( 1) = (     1          0          0      )
                  (     0          1          0      )
                  (     0          0          1      )

 cart.    s( 1) = (  1.0000000  0.0000000  0.0000000 )
                  (  0.0000000  1.0000000  0.0000000 )
                  (  0.0000000  0.0000000  1.0000000 )


     point group C_1 (1)    
     there are  1 classes
     the character table:

       E    
A      1.00

     the symmetry operations in each class and the name of the first element:

     E        1
          identity                                               

   Cartesian axes

     site n.     atom                  positions (alat units)
         1           Si  tau(   1) = (   0.0000000   0.0000000   0.0000000  )
         2           Si  tau(   2) = (  -0.2500000   0.2500000   0.2500000  )

   Crystallographic axes

     site n.     atom                  positions (cryst. coord.)
         1           Si  tau(   1) = (  0.0000000  0.0000000  0.0000000  )
         2           Si  tau(   2) = (  0.2500000  0.2500000  0.2500000  )

     number of k points=    64
                       cart. coord. in units 2pi/alat
        k(    1) = (   0.0000000   0.0000000   0.0000000), wk =   0.0312500
        k(    2) = (  -0.2500000   0.2500000  -0.2500000), wk =   0.0312500
        k(    3) = (   0.5000000  -0.5000000   0.5000000), wk =   0.0312500
        k(    4) = (   0.2500000  -0.2500000   0.2500000), wk =   0.0312500
        k(    5) = (   0.2500000   0.2500000   0.2500000), wk =   0.0312500
        k(    6) = (   0.0000000   0.5000000   0.0000000), wk =   0.0312500
        k(    7) = (   0.7500000  -0.2500000   0.7500000), wk =   0.0312500
        k(    8) = (   0.5000000   0.0000000   0.5000000), wk =   0.0312500
        k(    9) = (  -0.5000000  -0.5000000  -0.5000000), wk =   0.0312500
        k(   10) = (  -0.7500000  -0.2500000  -0.7500000), wk =   0.0312500
        k(   11) = (   0.0000000  -1.0000000   0.0000000), wk =   0.0312500
        k(   12) = (  -0.2500000  -0.7500000  -0.2500000), wk =   0.0312500
        k(   13) = (  -0.2500000  -0.2500000  -0.2500000), wk =   0.0312500
        k(   14) = (  -0.5000000   0.0000000  -0.5000000), wk =   0.0312500
        k(   15) = (   0.2500000  -0.7500000   0.2500000), wk =   0.0312500
        k(   16) = (   0.0000000  -0.5000000   0.0000000), wk =   0.0312500
        k(   17) = (  -0.2500000  -0.2500000   0.2500000), wk =   0.0312500
        k(   18) = (  -0.5000000   0.0000000   0.0000000), wk =   0.0312500
        k(   19) = (   0.2500000  -0.7500000   0.7500000), wk =   0.0312500
        k(   20) = (   0.0000000  -0.5000000   0.5000000), wk =   0.0312500
        k(   21) = (   0.0000000   0.0000000   0.5000000), wk =   0.0312500
        k(   22) = (  -0.2500000   0.2500000   0.2500000), wk =   0.0312500
        k(   23) = (   0.5000000  -0.5000000   1.0000000), wk =   0.0312500
        k(   24) = (   0.2500000  -0.2500000   0.7500000), wk =   0.0312500
        k(   25) = (  -0.7500000  -0.7500000  -0.2500000), wk =   0.0312500
        k(   26) = (  -1.0000000  -0.5000000  -0.5000000), wk =   0.0312500
        k(   27) = (  -0.2500000  -1.2500000   0.2500000), wk =   0.0312500
        k(   28) = (  -0.5000000  -1.0000000   0.0000000), wk =   0.0312500
        k(   29) = (  -0.5000000  -0.5000000   0.0000000), wk =   0.0312500
        k(   30) = (  -0.7500000  -0.2500000  -0.2500000), wk =   0.0312500
        k(   31) = (   0.0000000  -1.0000000   0.5000000), wk =   0.0312500
        k(   32) = (  -0.2500000  -0.7500000   0.2500000), wk =   0.0312500
        k(   33) = (   0.5000000   0.5000000  -0.5000000), wk =   0.0312500
        k(   34) = (   0.2500000   0.7500000  -0.7500000), wk =   0.0312500
        k(   35) = (   1.0000000   0.0000000   0.0000000), wk =   0.0312500
        k(   36) = (   0.7500000   0.2500000  -0.2500000), wk =   0.0312500
        k(   37) = (   0.7500000   0.7500000  -0.2500000), wk =   0.0312500
        k(   38) = (   0.5000000   1.0000000  -0.5000000), wk =   0.0312500
        k(   39) = (   1.2500000   0.2500000   0.2500000), wk =   0.0312500
        k(   40) = (   1.0000000   0.5000000   0.0000000), wk =   0.0312500
        k(   41) = (   0.0000000   0.0000000  -1.0000000), wk =   0.0312500
        k(   42) = (  -0.2500000   0.2500000  -1.2500000), wk =   0.0312500
        k(   43) = (   0.5000000  -0.5000000  -0.5000000), wk =   0.0312500
        k(   44) = (   0.2500000  -0.2500000  -0.7500000), wk =   0.0312500
        k(   45) = (   0.2500000   0.2500000  -0.7500000), wk =   0.0312500
        k(   46) = (   0.0000000   0.5000000  -1.0000000), wk =   0.0312500
        k(   47) = (   0.7500000  -0.2500000  -0.2500000), wk =   0.0312500
        k(   48) = (   0.5000000   0.0000000  -0.5000000), wk =   0.0312500
        k(   49) = (   0.2500000   0.2500000  -0.2500000), wk =   0.0312500
        k(   50) = (   0.0000000   0.5000000  -0.5000000), wk =   0.0312500
        k(   51) = (   0.7500000  -0.2500000   0.2500000), wk =   0.0312500
        k(   52) = (   0.5000000   0.0000000   0.0000000), wk =   0.0312500
        k(   53) = (   0.5000000   0.5000000   0.0000000), wk =   0.0312500
        k(   54) = (   0.2500000   0.7500000  -0.2500000), wk =   0.0312500
        k(   55) = (   1.0000000   0.0000000   0.5000000), wk =   0.0312500
        k(   56) = (   0.7500000   0.2500000   0.2500000), wk =   0.0312500
        k(   57) = (  -0.2500000  -0.2500000  -0.7500000), wk =   0.0312500
        k(   58) = (  -0.5000000   0.0000000  -1.0000000), wk =   0.0312500
        k(   59) = (   0.2500000  -0.7500000  -0.2500000), wk =   0.0312500
        k(   60) = (   0.0000000  -0.5000000  -0.5000000), wk =   0.0312500
        k(   61) = (   0.0000000   0.0000000  -0.5000000), wk =   0.0312500
        k(   62) = (  -0.2500000   0.2500000  -0.7500000), wk =   0.0312500
        k(   63) = (   0.5000000  -0.5000000   0.0000000), wk =   0.0312500
        k(   64) = (   0.2500000  -0.2500000  -0.2500000), wk =   0.0312500

                       cryst. coord.
        k(    1) = (   0.0000000   0.0000000   0.0000000), wk =   0.0312500
        k(    2) = (   0.0000000   0.0000000   0.2500000), wk =   0.0312500
        k(    3) = (   0.0000000   0.0000000  -0.5000000), wk =   0.0312500
        k(    4) = (   0.0000000   0.0000000  -0.2500000), wk =   0.0312500
        k(    5) = (   0.0000000   0.2500000   0.0000000), wk =   0.0312500
        k(    6) = (   0.0000000   0.2500000   0.2500000), wk =   0.0312500
        k(    7) = (   0.0000000   0.2500000  -0.5000000), wk =   0.0312500
        k(    8) = (   0.0000000   0.2500000  -0.2500000), wk =   0.0312500
        k(    9) = (   0.0000000  -0.5000000   0.0000000), wk =   0.0312500
        k(   10) = (   0.0000000  -0.5000000   0.2500000), wk =   0.0312500
        k(   11) = (   0.0000000  -0.5000000  -0.5000000), wk =   0.0312500
        k(   12) = (   0.0000000  -0.5000000  -0.2500000), wk =   0.0312500
        k(   13) = (   0.0000000  -0.2500000   0.0000000), wk =   0.0312500
        k(   14) = (   0.0000000  -0.2500000   0.2500000), wk =   0.0312500
        k(   15) = (   0.0000000  -0.2500000  -0.5000000), wk =   0.0312500
        k(   16) = (   0.0000000  -0.2500000  -0.2500000), wk =   0.0312500
        k(   17) = (   0.2500000   0.0000000   0.0000000), wk =   0.0312500
        k(   18) = (   0.2500000   0.0000000   0.2500000), wk =   0.0312500
        k(   19) = (   0.2500000   0.0000000  -0.5000000), wk =   0.0312500
        k(   20) = (   0.2500000   0.0000000  -0.2500000), wk =   0.0312500
        k(   21) = (   0.2500000   0.2500000   0.0000000), wk =   0.0312500
        k(   22) = (   0.2500000   0.2500000   0.2500000), wk =   0.0312500
        k(   23) = (   0.2500000   0.2500000  -0.5000000), wk =   0.0312500
        k(   24) = (   0.2500000   0.2500000  -0.2500000), wk =   0.0312500
        k(   25) = (   0.2500000  -0.5000000   0.0000000), wk =   0.0312500
        k(   26) = (   0.2500000  -0.5000000   0.2500000), wk =   0.0312500
        k(   27) = (   0.2500000  -0.5000000  -0.5000000), wk =   0.0312500
        k(   28) = (   0.2500000  -0.5000000  -0.2500000), wk =   0.0312500
        k(   29) = (   0.2500000  -0.2500000   0.0000000), wk =   0.0312500
        k(   30) = (   0.2500000  -0.2500000   0.2500000), wk =   0.0312500
        k(   31) = (   0.2500000  -0.2500000  -0.5000000), wk =   0.0312500
        k(   32) = (   0.2500000  -0.2500000  -0.2500000), wk =   0.0312500
        k(   33) = (  -0.5000000   0.0000000   0.0000000), wk =   0.0312500
        k(   34) = (  -0.5000000   0.0000000   0.2500000), wk =   0.0312500
        k(   35) = (  -0.5000000   0.0000000  -0.5000000), wk =   0.0312500
        k(   36) = (  -0.5000000   0.0000000  -0.2500000), wk =   0.0312500
        k(   37) = (  -0.5000000   0.2500000   0.0000000), wk =   0.0312500
        k(   38) = (  -0.5000000   0.2500000   0.2500000), wk =   0.0312500
        k(   39) = (  -0.5000000   0.2500000  -0.5000000), wk =   0.0312500
        k(   40) = (  -0.5000000   0.2500000  -0.2500000), wk =   0.0312500
        k(   41) = (  -0.5000000  -0.5000000   0.0000000), wk =   0.0312500
        k(   42) = (  -0.5000000  -0.5000000   0.2500000), wk =   0.0312500
        k(   43) = (  -0.5000000  -0.5000000  -0.5000000), wk =   0.0312500
        k(   44) = (  -0.5000000  -0.5000000  -0.2500000), wk =   0.0312500
        k(   45) = (  -0.5000000  -0.2500000   0.0000000), wk =   0.0312500
        k(   46) = (  -0.5000000  -0.2500000   0.2500000), wk =   0.0312500
        k(   47) = (  -0.5000000  -0.2500000  -0.5000000), wk =   0.0312500
        k(   48) = (  -0.5000000  -0.2500000  -0.2500000), wk =   0.0312500
        k(   49) = (  -0.2500000   0.0000000   0.0000000), wk =   0.0312500
        k(   50) = (  -0.2500000   0.0000000   0.2500000), wk =   0.0312500
        k(   51) = (  -0.2500000   0.0000000  -0.5000000), wk =   0.0312500
        k(   52) = (  -0.2500000   0.0000000  -0.2500000), wk =   0.0312500
        k(   53) = (  -0.2500000   0.2500000   0.0000000), wk =   0.0312500
        k(   54) = (  -0.2500000   0.2500000   0.2500000), wk =   0.0312500
        k(   55) = (  -0.2500000   0.2500000  -0.5000000), wk =   0.0312500
        k(   56) = (  -0.2500000   0.2500000  -0.2500000), wk =   0.0312500
        k(   57) = (  -0.2500000  -0.5000000   0.0000000), wk =   0.0312500
        k(   58) = (  -0.2500000  -0.5000000   0.2500000), wk =   0.0312500
        k(   59) = (  -0.2500000  -0.5000000  -0.5000000), wk =   0.0312500
        k(   60) = (  -0.2500000  -0.5000000  -0.2500000), wk =   0.0312500
        k(   61) = (  -0.2500000  -0.2500000   0.0000000), wk =   0.0312500
        k(   62) = (  -0.2500000  -0.2500000   0.2500000), wk =   0.0312500
        k(   63) = (  -0.2500000  -0.2500000  -0.5000000), wk =   0.0312500
        k(   64) = (  -0.2500000  -0.2500000  -0.2500000), wk =   0.0312500

     Dense  grid:    16889 G-vectors     FFT dimensions: (  36,  36,  36)

     Dynamical RAM for                 wfc:       0.16 MB

     Dynamical RAM for     wfc (w. buffer):       0.16 MB

     Dynamical RAM for           str. fact:       0.06 MB

     Dynamical RAM for           local pot:       0.00 MB

     Dynamical RAM for          nlocal pot:       0.13 MB

     Dynamical RAM for                qrad:       0.36 MB

     Dynamical RAM for          rho,v,vnew:       0.46 MB

     Dynamical RAM for           G-vectors:       0.27 MB

     Dynamical RAM for          h,s,v(r/c):       0.07 MB

     Dynamical RAM for          <psi|beta>:       0.00 MB

     Dynamical RAM for                 psi:       0.32 MB

     Dynamical RAM for                hpsi:       0.32 MB

     Dynamical RAM for      wfcinit/wfcrot:       0.33 MB

     Estimated static dynamical RAM per process >       2.02 MB

     Estimated max dynamical RAM per process >       2.74 MB

     Estimated total dynamical RAM >      43.91 MB

     The potential is recalculated from file :
     /scratch/elinscott/materials_cloud_archive/si/init/TMP/kc.save/charge-density

     Starting wfcs are random

     Band Structure Calculation
     Davidson diagonalization with overlap

     Computing kpt #:     1  of    16 on this pool
     total cpu time spent up to now is        0.2 secs

     Computing kpt #:     2  of    16 on this pool
     total cpu time spent up to now is        0.3 secs

     Computing kpt #:     3  of    16 on this pool
     total cpu time spent up to now is        0.3 secs

     Computing kpt #:     4  of    16 on this pool
     total cpu time spent up to now is        0.4 secs

     Computing kpt #:     5  of    16 on this pool
     total cpu time spent up to now is        0.5 secs

     Computing kpt #:     6  of    16 on this pool
     total cpu time spent up to now is        0.6 secs

     Computing kpt #:     7  of    16 on this pool
     total cpu time spent up to now is        0.6 secs

     Computing kpt #:     8  of    16 on this pool
     total cpu time spent up to now is        0.7 secs

     Computing kpt #:     9  of    16 on this pool
     total cpu time spent up to now is        0.8 secs

     Computing kpt #:    10  of    16 on this pool
     total cpu time spent up to now is        0.9 secs

     Computing kpt #:    11  of    16 on this pool
     total cpu time spent up to now is        1.0 secs

     Computing kpt #:    12  of    16 on this pool
     total cpu time spent up to now is        1.1 secs

     Computing kpt #:    13  of    16 on this pool
     total cpu time spent up to now is        1.1 secs

     Computing kpt #:    14  of    16 on this pool
     total cpu time spent up to now is        1.2 secs

     Computing kpt #:    15  of    16 on this pool
     total cpu time spent up to now is        1.3 secs

     Computing kpt #:    16  of    16 on this pool
     total cpu time spent up to now is        1.4 secs

     ethr =  2.00E-10,  avg # of iterations = 34.6

     total cpu time spent up to now is        1.4 secs

     End of band structure calculation

          k = 0.0000 0.0000 0.0000 (  2109 PWs)   bands (ev):

    -5.7002   6.2661   6.2661   6.2661   8.8091   8.8091   8.8091   9.6063
    13.9151  13.9151  14.2051  17.4690  17.4690  17.4690  21.6572  29.1574
    29.1574  29.1574  30.1732  30.1732

     occupation numbers 
     1.0000   1.0000   1.0000   1.0000   0.0000   0.0000   0.0000   0.0000
     0.0000   0.0000   0.0000   0.0000   0.0000   0.0000   0.0000   0.0000
     0.0000   0.0000   0.0000   0.0000

          k =-0.2500 0.2500-0.2500 (  2106 PWs)   bands (ev):

    -4.9003   2.3352   5.5081   5.5081   8.2690   9.7463   9.7463  13.1651
    13.3999  13.3999  15.2300  18.0779  20.8259  20.8259  24.0387  24.0387
    24.1853  26.3178  30.0351  30.0351

     occupation numbers 
     1.0000   1.0000   1.0000   1.0000   0.0000   0.0000   0.0000   0.0000
     0.0000   0.0000   0.0000   0.0000   0.0000   0.0000   0.0000   0.0000
     0.0000   0.0000   0.0000   0.0000

          k = 0.5000-0.5000 0.5000 (  2120 PWs)   bands (ev):

    -3.3675  -0.7091   5.0715   5.0715   7.7754   9.5709   9.5709  13.9673
    16.7297  16.7297  17.5611  17.5611  17.5877  19.2667  25.5276  26.1637
    27.7890  27.7890  27.9168  27.9168

     occupation numbers 
     1.0000   1.0000   1.0000   1.0000   0.0000   0.0000   0.0000   0.0000
     0.0000   0.0000   0.0000   0.0000   0.0000   0.0000   0.0000   0.0000
     0.0000   0.0000   0.0000   0.0000

          k = 0.2500-0.2500 0.2500 (  2106 PWs)   bands (ev):

    -4.9003   2.3352   5.5081   5.5081   8.2690   9.7463   9.7463  13.1651
    13.3999  13.3999  15.2300  18.0779  20.8259  20.8259  24.0387  24.0387
    24.1853  26.3178  30.0351  30.0351

     occupation numbers 
     1.0000   1.0000   1.0000   1.0000   0.0000   0.0000   0.0000   0.0000
     0.0000   0.0000   0.0000   0.0000   0.0000   0.0000   0.0000   0.0000
     0.0000   0.0000   0.0000   0.0000

          k = 0.2500 0.2500 0.2500 (  2106 PWs)   bands (ev):

    -4.9003   2.3352   5.5081   5.5081   8.2690   9.7463   9.7463  13.1651
    13.3999  13.3999  15.2300  18.0779  20.8259  20.8259  24.0387  24.0387
    24.1853  26.3178  30.0351  30.0351

     occupation numbers 
     1.0000   1.0000   1.0000   1.0000   0.0000   0.0000   0.0000   0.0000
     0.0000   0.0000   0.0000   0.0000   0.0000   0.0000   0.0000   0.0000
     0.0000   0.0000   0.0000   0.0000

          k = 0.0000 0.5000 0.0000 (  2085 PWs)   bands (ev):

    -4.6180   2.7467   4.3768   4.3768   7.3703   9.3602  11.9965  11.9965
    14.2916  15.1203  17.6879  19.2123  19.2123  19.9370  23.6155  23.6155
    24.4746  26.5286  27.1142  31.0143

     occupation numbers 
     1.0000   1.0000   1.0000   1.0000   0.0000   0.0000   0.0000   0.0000
     0.0000   0.0000   0.0000   0.0000   0.0000   0.0000   0.0000   0.0000
     0.0000   0.0000   0.0000   0.0000

          k = 0.7500-0.2500 0.7500 (  2123 PWs)   bands (ev):

    -2.9810  -0.1200   2.7280   4.0633   7.7536  10.6789  11.9842  12.1476
    16.4417  16.7326  18.3511  18.9217  19.2694  23.0391  23.8834  24.7902
    25.5434  25.7477  26.1050  29.0936

     occupation numbers 
     1.0000   1.0000   1.0000   1.0000   0.0000   0.0000   0.0000   0.0000
     0.0000   0.0000   0.0000   0.0000   0.0000   0.0000   0.0000   0.0000
     0.0000   0.0000   0.0000   0.0000

          k = 0.5000 0.0000 0.5000 (  2119 PWs)   bands (ev):

    -3.6557   0.7830   2.5087   4.9411   8.6844  11.0300  11.3671  12.3880
    12.6505  15.8671  18.8327  19.3916  19.6816  22.8832  23.1786  23.6397
    24.8623  27.3424  27.8770  30.0334

     occupation numbers 
     1.0000   1.0000   1.0000   1.0000   0.0000   0.0000   0.0000   0.0000
     0.0000   0.0000   0.0000   0.0000   0.0000   0.0000   0.0000   0.0000
     0.0000   0.0000   0.0000   0.0000

          k =-0.5000-0.5000-0.5000 (  2120 PWs)   bands (ev):

    -3.3675  -0.7091   5.0715   5.0715   7.7754   9.5709   9.5709  13.9673
    16.7297  16.7297  17.5611  17.5611  17.5877  19.2667  25.5276  26.1637
    27.7890  27.7890  27.9168  27.9168

     occupation numbers 
     1.0000   1.0000   1.0000   1.0000   0.0000   0.0000   0.0000   0.0000
     0.0000   0.0000   0.0000   0.0000   0.0000   0.0000   0.0000   0.0000
     0.0000   0.0000   0.0000   0.0000

          k =-0.7500-0.2500-0.7500 (  2123 PWs)   bands (ev):

    -2.9810  -0.1200   2.7280   4.0633   7.7536  10.6789  11.9842  12.1476
    16.4417  16.7326  18.3511  18.9217  19.2694  23.0391  23.8834  24.7902
    25.5434  25.7477  26.1050  29.0936

     occupation numbers 
     1.0000   1.0000   1.0000   1.0000   0.0000   0.0000   0.0000   0.0000
     0.0000   0.0000   0.0000   0.0000   0.0000   0.0000   0.0000   0.0000
     0.0000   0.0000   0.0000   0.0000

          k = 0.0000-1.0000 0.0000 (  2100 PWs)   bands (ev):

    -1.5542  -1.5542   3.4161   3.4161   6.9421   6.9421  16.3570  16.3570
    17.1521  17.1521  18.7010  18.7010  19.2935  19.2935  25.0088  25.0088
    25.9677  25.9677  26.3968  26.3968

     occupation numbers 
     1.0000   1.0000   1.0000   1.0000   0.0000   0.0000   0.0000   0.0000
     0.0000   0.0000   0.0000   0.0000   0.0000   0.0000   0.0000   0.0000
     0.0000   0.0000   0.0000   0.0000

          k =-0.2500-0.7500-0.2500 (  2123 PWs)   bands (ev):

    -2.9810  -0.1200   2.7280   4.0633   7.7536  10.6789  11.9842  12.1476
    16.4417  16.7326  18.3511  18.9217  19.2694  23.0391  23.8834  24.7902
    25.5434  25.7477  26.1050  29.0936

     occupation numbers 
     1.0000   1.0000   1.0000   1.0000   0.0000   0.0000   0.0000   0.0000
     0.0000   0.0000   0.0000   0.0000   0.0000   0.0000   0.0000   0.0000
     0.0000   0.0000   0.0000   0.0000

          k =-0.2500-0.2500-0.2500 (  2106 PWs)   bands (ev):

    -4.9003   2.3352   5.5081   5.5081   8.2690   9.7463   9.7463  13.1651
    13.3999  13.3999  15.2300  18.0779  20.8259  20.8259  24.0387  24.0387
    24.1853  26.3178  30.0351  30.0351

     occupation numbers 
     1.0000   1.0000   1.0000   1.0000   0.0000   0.0000   0.0000   0.0000
     0.0000   0.0000   0.0000   0.0000   0.0000   0.0000   0.0000   0.0000
     0.0000   0.0000   0.0000   0.0000

          k =-0.5000 0.0000-0.5000 (  2119 PWs)   bands (ev):

    -3.6557   0.7830   2.5087   4.9411   8.6844  11.0300  11.3671  12.3880
    12.6505  15.8671  18.8327  19.3916  19.6816  22.8832  23.1786  23.6397
    24.8623  27.3424  27.8770  30.0334

     occupation numbers 
     1.0000   1.0000   1.0000   1.0000   0.0000   0.0000   0.0000   0.0000
     0.0000   0.0000   0.0000   0.0000   0.0000   0.0000   0.0000   0.0000
     0.0000   0.0000   0.0000   0.0000

          k = 0.2500-0.7500 0.2500 (  2123 PWs)   bands (ev):

    -2.9810  -0.1200   2.7280   4.0633   7.7536  10.6789  11.9842  12.1476
    16.4417  16.7326  18.3511  18.9217  19.2694  23.0391  23.8834  24.7902
    25.5434  25.7477  26.1050  29.0936

     occupation numbers 
     1.0000   1.0000   1.0000   1.0000   0.0000   0.0000   0.0000   0.0000
     0.0000   0.0000   0.0000   0.0000   0.0000   0.0000   0.0000   0.0000
     0.0000   0.0000   0.0000   0.0000

          k = 0.0000-0.5000 0.0000 (  2085 PWs)   bands (ev):

    -4.6180   2.7467   4.3768   4.3768   7.3703   9.3602  11.9965  11.9965
    14.2916  15.1203  17.6879  19.2123  19.2123  19.9370  23.6155  23.6155
    24.4746  26.5286  27.1142  31.0143

     occupation numbers 
     1.0000   1.0000   1.0000   1.0000   0.0000   0.0000   0.0000   0.0000
     0.0000   0.0000   0.0000   0.0000   0.0000   0.0000   0.0000   0.0000
     0.0000   0.0000   0.0000   0.0000

          k =-0.2500-0.2500 0.2500 (  2106 PWs)   bands (ev):

    -4.9003   2.3352   5.5081   5.5081   8.2690   9.7463   9.7463  13.1651
    13.3999  13.3999  15.2300  18.0779  20.8259  20.8259  24.0387  24.0387
    24.1853  26.3178  30.0351  30.0351

     occupation numbers 
     1.0000   1.0000   1.0000   1.0000   0.0000   0.0000   0.0000   0.0000
     0.0000   0.0000   0.0000   0.0000   0.0000   0.0000   0.0000   0.0000
     0.0000   0.0000   0.0000   0.0000

          k =-0.5000 0.0000 0.0000 (  2085 PWs)   bands (ev):

    -4.6180   2.7467   4.3768   4.3768   7.3703   9.3602  11.9965  11.9965
    14.2916  15.1203  17.6879  19.2123  19.2123  19.9370  23.6155  23.6155
    24.4746  26.5286  27.1142  31.0143

     occupation numbers 
     1.0000   1.0000   1.0000   1.0000   0.0000   0.0000   0.0000   0.0000
     0.0000   0.0000   0.0000   0.0000   0.0000   0.0000   0.0000   0.0000
     0.0000   0.0000   0.0000   0.0000

          k = 0.2500-0.7500 0.7500 (  2123 PWs)   bands (ev):

    -2.9810  -0.1200   2.7280   4.0633   7.7536  10.6789  11.9842  12.1476
    16.4417  16.7326  18.3511  18.9217  19.2694  23.0391  23.8834  24.7902
    25.5434  25.7477  26.1050  29.0936

     occupation numbers 
     1.0000   1.0000   1.0000   1.0000   0.0000   0.0000   0.0000   0.0000
     0.0000   0.0000   0.0000   0.0000   0.0000   0.0000   0.0000   0.0000
     0.0000   0.0000   0.0000   0.0000

          k = 0.0000-0.5000 0.5000 (  2119 PWs)   bands (ev):

    -3.6557   0.7830   2.5087   4.9411   8.6844  11.0300  11.3671  12.3880
    12.6505  15.8671  18.8327  19.3916  19.6816  22.8832  23.1786  23.6397
    24.8623  27.3424  27.8770  30.0334

     occupation numbers 
     1.0000   1.0000   1.0000   1.0000   0.0000   0.0000   0.0000   0.0000
     0.0000   0.0000   0.0000   0.0000   0.0000   0.0000   0.0000   0.0000
     0.0000   0.0000   0.0000   0.0000

          k = 0.0000 0.0000 0.5000 (  2085 PWs)   bands (ev):

    -4.6180   2.7467   4.3768   4.3768   7.3703   9.3602  11.9965  11.9965
    14.2916  15.1203  17.6879  19.2123  19.2123  19.9370  23.6155  23.6155
    24.4746  26.5286  27.1142  31.0143

     occupation numbers 
     1.0000   1.0000   1.0000   1.0000   0.0000   0.0000   0.0000   0.0000
     0.0000   0.0000   0.0000   0.0000   0.0000   0.0000   0.0000   0.0000
     0.0000   0.0000   0.0000   0.0000

          k =-0.2500 0.2500 0.2500 (  2106 PWs)   bands (ev):

    -4.9003   2.3352   5.5081   5.5081   8.2690   9.7463   9.7463  13.1651
    13.3999  13.3999  15.2300  18.0779  20.8259  20.8259  24.0387  24.0387
    24.1853  26.3178  30.0351  30.0351

     occupation numbers 
     1.0000   1.0000   1.0000   1.0000   0.0000   0.0000   0.0000   0.0000
     0.0000   0.0000   0.0000   0.0000   0.0000   0.0000   0.0000   0.0000
     0.0000   0.0000   0.0000   0.0000

          k = 0.5000-0.5000 1.0000 (  2119 PWs)   bands (ev):

    -3.6557   0.7830   2.5087   4.9411   8.6844  11.0300  11.3671  12.3880
    12.6505  15.8671  18.8327  19.3916  19.6816  22.8832  23.1786  23.6397
    24.8623  27.3424  27.8770  30.0334

     occupation numbers 
     1.0000   1.0000   1.0000   1.0000   0.0000   0.0000   0.0000   0.0000
     0.0000   0.0000   0.0000   0.0000   0.0000   0.0000   0.0000   0.0000
     0.0000   0.0000   0.0000   0.0000

          k = 0.2500-0.2500 0.7500 (  2123 PWs)   bands (ev):

    -2.9810  -0.1200   2.7280   4.0633   7.7536  10.6789  11.9842  12.1476
    16.4417  16.7326  18.3511  18.9217  19.2694  23.0391  23.8834  24.7902
    25.5434  25.7477  26.1050  29.0936

     occupation numbers 
     1.0000   1.0000   1.0000   1.0000   0.0000   0.0000   0.0000   0.0000
     0.0000   0.0000   0.0000   0.0000   0.0000   0.0000   0.0000   0.0000
     0.0000   0.0000   0.0000   0.0000

          k =-0.7500-0.7500-0.2500 (  2123 PWs)   bands (ev):

    -2.9810  -0.1200   2.7280   4.0633   7.7536  10.6789  11.9842  12.1476
    16.4417  16.7326  18.3511  18.9217  19.2694  23.0391  23.8834  24.7902
    25.5434  25.7477  26.1050  29.0936

     occupation numbers 
     1.0000   1.0000   1.0000   1.0000   0.0000   0.0000   0.0000   0.0000
     0.0000   0.0000   0.0000   0.0000   0.0000   0.0000   0.0000   0.0000
     0.0000   0.0000   0.0000   0.0000

          k =-1.0000-0.5000-0.5000 (  2119 PWs)   bands (ev):

    -3.6557   0.7830   2.5087   4.9411   8.6844  11.0300  11.3671  12.3880
    12.6505  15.8671  18.8327  19.3916  19.6816  22.8832  23.1786  23.6397
    24.8623  27.3424  27.8770  30.0334

     occupation numbers 
     1.0000   1.0000   1.0000   1.0000   0.0000   0.0000   0.0000   0.0000
     0.0000   0.0000   0.0000   0.0000   0.0000   0.0000   0.0000   0.0000
     0.0000   0.0000   0.0000   0.0000

          k =-0.2500-1.2500 0.2500 (  2123 PWs)   bands (ev):

    -2.9810  -0.1200   2.7280   4.0633   7.7536  10.6789  11.9842  12.1476
    16.4417  16.7326  18.3511  18.9217  19.2694  23.0391  23.8834  24.7902
    25.5434  25.7477  26.1050  29.0936

     occupation numbers 
     1.0000   1.0000   1.0000   1.0000   0.0000   0.0000   0.0000   0.0000
     0.0000   0.0000   0.0000   0.0000   0.0000   0.0000   0.0000   0.0000
     0.0000   0.0000   0.0000   0.0000

          k =-0.5000-1.0000 0.0000 (  2148 PWs)   bands (ev):

    -1.3897  -1.3897   2.4089   2.4089  10.5006  10.5006  11.2390  11.2390
    16.7924  16.7924  19.2428  19.2428  22.6458  22.6458  24.8118  24.8118
    25.0749  25.0749  25.8968  25.8968

     occupation numbers 
     1.0000   1.0000   1.0000   1.0000   0.0000   0.0000   0.0000   0.0000
     0.0000   0.0000   0.0000   0.0000   0.0000   0.0000   0.0000   0.0000
     0.0000   0.0000   0.0000   0.0000

          k =-0.5000-0.5000 0.0000 (  2119 PWs)   bands (ev):

    -3.6557   0.7830   2.5087   4.9411   8.6844  11.0300  11.3671  12.3880
    12.6505  15.8671  18.8327  19.3916  19.6816  22.8832  23.1786  23.6397
    24.8623  27.3424  27.8770  30.0334

     occupation numbers 
     1.0000   1.0000   1.0000   1.0000   0.0000   0.0000   0.0000   0.0000
     0.0000   0.0000   0.0000   0.0000   0.0000   0.0000   0.0000   0.0000
     0.0000   0.0000   0.0000   0.0000

          k =-0.7500-0.2500-0.2500 (  2123 PWs)   bands (ev):

    -2.9810  -0.1200   2.7280   4.0633   7.7536  10.6789  11.9842  12.1476
    16.4417  16.7326  18.3511  18.9217  19.2694  23.0391  23.8834  24.7902
    25.5434  25.7477  26.1050  29.0936

     occupation numbers 
     1.0000   1.0000   1.0000   1.0000   0.0000   0.0000   0.0000   0.0000
     0.0000   0.0000   0.0000   0.0000   0.0000   0.0000   0.0000   0.0000
     0.0000   0.0000   0.0000   0.0000

          k = 0.0000-1.0000 0.5000 (  2148 PWs)   bands (ev):

    -1.3897  -1.3897   2.4089   2.4089  10.5006  10.5006  11.2390  11.2390
    16.7924  16.7924  19.2428  19.2428  22.6458  22.6458  24.8118  24.8118
    25.0749  25.0749  25.8968  25.8968

     occupation numbers 
     1.0000   1.0000   1.0000   1.0000   0.0000   0.0000   0.0000   0.0000
     0.0000   0.0000   0.0000   0.0000   0.0000   0.0000   0.0000   0.0000
     0.0000   0.0000   0.0000   0.0000

          k =-0.2500-0.7500 0.2500 (  2123 PWs)   bands (ev):

    -2.9810  -0.1200   2.7280   4.0633   7.7536  10.6789  11.9842  12.1476
    16.4417  16.7326  18.3511  18.9217  19.2694  23.0391  23.8834  24.7902
    25.5434  25.7477  26.1050  29.0936

     occupation numbers 
     1.0000   1.0000   1.0000   1.0000   0.0000   0.0000   0.0000   0.0000
     0.0000   0.0000   0.0000   0.0000   0.0000   0.0000   0.0000   0.0000
     0.0000   0.0000   0.0000   0.0000

          k = 0.5000 0.5000-0.5000 (  2120 PWs)   bands (ev):

    -3.3675  -0.7091   5.0715   5.0715   7.7754   9.5709   9.5709  13.9673
    16.7297  16.7297  17.5611  17.5611  17.5877  19.2667  25.5276  26.1637
    27.7890  27.7890  27.9168  27.9168

     occupation numbers 
     1.0000   1.0000   1.0000   1.0000   0.0000   0.0000   0.0000   0.0000
     0.0000   0.0000   0.0000   0.0000   0.0000   0.0000   0.0000   0.0000
     0.0000   0.0000   0.0000   0.0000

          k = 0.2500 0.7500-0.7500 (  2123 PWs)   bands (ev):

    -2.9810  -0.1200   2.7280   4.0633   7.7536  10.6789  11.9842  12.1476
    16.4417  16.7326  18.3511  18.9217  19.2694  23.0391  23.8834  24.7902
    25.5434  25.7477  26.1050  29.0936

     occupation numbers 
     1.0000   1.0000   1.0000   1.0000   0.0000   0.0000   0.0000   0.0000
     0.0000   0.0000   0.0000   0.0000   0.0000   0.0000   0.0000   0.0000
     0.0000   0.0000   0.0000   0.0000

          k = 1.0000 0.0000 0.0000 (  2100 PWs)   bands (ev):

    -1.5542  -1.5542   3.4161   3.4161   6.9421   6.9421  16.3570  16.3570
    17.1521  17.1521  18.7010  18.7010  19.2935  19.2935  25.0088  25.0088
    25.9677  25.9677  26.3968  26.3968

     occupation numbers 
     1.0000   1.0000   1.0000   1.0000   0.0000   0.0000   0.0000   0.0000
     0.0000   0.0000   0.0000   0.0000   0.0000   0.0000   0.0000   0.0000
     0.0000   0.0000   0.0000   0.0000

          k = 0.7500 0.2500-0.2500 (  2123 PWs)   bands (ev):

    -2.9810  -0.1200   2.7280   4.0633   7.7536  10.6789  11.9842  12.1476
    16.4417  16.7326  18.3511  18.9217  19.2694  23.0391  23.8834  24.7902
    25.5434  25.7477  26.1050  29.0936

     occupation numbers 
     1.0000   1.0000   1.0000   1.0000   0.0000   0.0000   0.0000   0.0000
     0.0000   0.0000   0.0000   0.0000   0.0000   0.0000   0.0000   0.0000
     0.0000   0.0000   0.0000   0.0000

          k = 0.7500 0.7500-0.2500 (  2123 PWs)   bands (ev):

    -2.9810  -0.1200   2.7280   4.0633   7.7536  10.6789  11.9842  12.1476
    16.4417  16.7326  18.3511  18.9217  19.2694  23.0391  23.8834  24.7902
    25.5434  25.7477  26.1050  29.0936

     occupation numbers 
     1.0000   1.0000   1.0000   1.0000   0.0000   0.0000   0.0000   0.0000
     0.0000   0.0000   0.0000   0.0000   0.0000   0.0000   0.0000   0.0000
     0.0000   0.0000   0.0000   0.0000

          k = 0.5000 1.0000-0.5000 (  2119 PWs)   bands (ev):

    -3.6557   0.7830   2.5087   4.9411   8.6844  11.0300  11.3671  12.3880
    12.6505  15.8671  18.8327  19.3916  19.6816  22.8832  23.1786  23.6397
    24.8623  27.3424  27.8770  30.0334

     occupation numbers 
     1.0000   1.0000   1.0000   1.0000   0.0000   0.0000   0.0000   0.0000
     0.0000   0.0000   0.0000   0.0000   0.0000   0.0000   0.0000   0.0000
     0.0000   0.0000   0.0000   0.0000

          k = 1.2500 0.2500 0.2500 (  2123 PWs)   bands (ev):

    -2.9810  -0.1200   2.7280   4.0633   7.7536  10.6789  11.9842  12.1476
    16.4417  16.7326  18.3511  18.9217  19.2694  23.0391  23.8834  24.7902
    25.5434  25.7477  26.1050  29.0936

     occupation numbers 
     1.0000   1.0000   1.0000   1.0000   0.0000   0.0000   0.0000   0.0000
     0.0000   0.0000   0.0000   0.0000   0.0000   0.0000   0.0000   0.0000
     0.0000   0.0000   0.0000   0.0000

          k = 1.0000 0.5000 0.0000 (  2148 PWs)   bands (ev):

    -1.3897  -1.3897   2.4089   2.4089  10.5006  10.5006  11.2390  11.2390
    16.7924  16.7924  19.2428  19.2428  22.6458  22.6458  24.8118  24.8118
    25.0749  25.0749  25.8968  25.8968

     occupation numbers 
     1.0000   1.0000   1.0000   1.0000   0.0000   0.0000   0.0000   0.0000
     0.0000   0.0000   0.0000   0.0000   0.0000   0.0000   0.0000   0.0000
     0.0000   0.0000   0.0000   0.0000

          k = 0.0000 0.0000-1.0000 (  2100 PWs)   bands (ev):

    -1.5542  -1.5542   3.4161   3.4161   6.9421   6.9421  16.3570  16.3570
    17.1521  17.1521  18.7010  18.7010  19.2935  19.2935  25.0088  25.0088
    25.9677  25.9677  26.3968  26.3968

     occupation numbers 
     1.0000   1.0000   1.0000   1.0000   0.0000   0.0000   0.0000   0.0000
     0.0000   0.0000   0.0000   0.0000   0.0000   0.0000   0.0000   0.0000
     0.0000   0.0000   0.0000   0.0000

          k =-0.2500 0.2500-1.2500 (  2123 PWs)   bands (ev):

    -2.9810  -0.1200   2.7280   4.0633   7.7536  10.6789  11.9842  12.1476
    16.4417  16.7326  18.3511  18.9217  19.2694  23.0391  23.8834  24.7902
    25.5434  25.7477  26.1050  29.0936

     occupation numbers 
     1.0000   1.0000   1.0000   1.0000   0.0000   0.0000   0.0000   0.0000
     0.0000   0.0000   0.0000   0.0000   0.0000   0.0000   0.0000   0.0000
     0.0000   0.0000   0.0000   0.0000

          k = 0.5000-0.5000-0.5000 (  2120 PWs)   bands (ev):

    -3.3675  -0.7091   5.0715   5.0715   7.7754   9.5709   9.5709  13.9673
    16.7297  16.7297  17.5611  17.5611  17.5877  19.2667  25.5276  26.1637
    27.7890  27.7890  27.9168  27.9168

     occupation numbers 
     1.0000   1.0000   1.0000   1.0000   0.0000   0.0000   0.0000   0.0000
     0.0000   0.0000   0.0000   0.0000   0.0000   0.0000   0.0000   0.0000
     0.0000   0.0000   0.0000   0.0000

          k = 0.2500-0.2500-0.7500 (  2123 PWs)   bands (ev):

    -2.9810  -0.1200   2.7280   4.0633   7.7536  10.6789  11.9842  12.1476
    16.4417  16.7326  18.3511  18.9217  19.2694  23.0391  23.8834  24.7902
    25.5434  25.7477  26.1050  29.0936

     occupation numbers 
     1.0000   1.0000   1.0000   1.0000   0.0000   0.0000   0.0000   0.0000
     0.0000   0.0000   0.0000   0.0000   0.0000   0.0000   0.0000   0.0000
     0.0000   0.0000   0.0000   0.0000

          k = 0.2500 0.2500-0.7500 (  2123 PWs)   bands (ev):

    -2.9810  -0.1200   2.7280   4.0633   7.7536  10.6789  11.9842  12.1476
    16.4417  16.7326  18.3511  18.9217  19.2694  23.0391  23.8834  24.7902
    25.5434  25.7477  26.1050  29.0936

     occupation numbers 
     1.0000   1.0000   1.0000   1.0000   0.0000   0.0000   0.0000   0.0000
     0.0000   0.0000   0.0000   0.0000   0.0000   0.0000   0.0000   0.0000
     0.0000   0.0000   0.0000   0.0000

          k = 0.0000 0.5000-1.0000 (  2148 PWs)   bands (ev):

    -1.3897  -1.3897   2.4089   2.4089  10.5006  10.5006  11.2390  11.2390
    16.7924  16.7924  19.2428  19.2428  22.6458  22.6458  24.8118  24.8118
    25.0749  25.0749  25.8968  25.8968

     occupation numbers 
     1.0000   1.0000   1.0000   1.0000   0.0000   0.0000   0.0000   0.0000
     0.0000   0.0000   0.0000   0.0000   0.0000   0.0000   0.0000   0.0000
     0.0000   0.0000   0.0000   0.0000

          k = 0.7500-0.2500-0.2500 (  2123 PWs)   bands (ev):

    -2.9810  -0.1200   2.7280   4.0633   7.7536  10.6789  11.9842  12.1476
    16.4417  16.7326  18.3511  18.9217  19.2694  23.0391  23.8834  24.7902
    25.5434  25.7477  26.1050  29.0936

     occupation numbers 
     1.0000   1.0000   1.0000   1.0000   0.0000   0.0000   0.0000   0.0000
     0.0000   0.0000   0.0000   0.0000   0.0000   0.0000   0.0000   0.0000
     0.0000   0.0000   0.0000   0.0000

          k = 0.5000 0.0000-0.5000 (  2119 PWs)   bands (ev):

    -3.6557   0.7830   2.5087   4.9411   8.6844  11.0300  11.3671  12.3880
    12.6505  15.8671  18.8327  19.3916  19.6816  22.8832  23.1786  23.6397
    24.8623  27.3424  27.8770  30.0334

     occupation numbers 
     1.0000   1.0000   1.0000   1.0000   0.0000   0.0000   0.0000   0.0000
     0.0000   0.0000   0.0000   0.0000   0.0000   0.0000   0.0000   0.0000
     0.0000   0.0000   0.0000   0.0000

          k = 0.2500 0.2500-0.2500 (  2106 PWs)   bands (ev):

    -4.9003   2.3352   5.5081   5.5081   8.2690   9.7463   9.7463  13.1651
    13.3999  13.3999  15.2300  18.0779  20.8259  20.8259  24.0387  24.0387
    24.1853  26.3178  30.0351  30.0351

     occupation numbers 
     1.0000   1.0000   1.0000   1.0000   0.0000   0.0000   0.0000   0.0000
     0.0000   0.0000   0.0000   0.0000   0.0000   0.0000   0.0000   0.0000
     0.0000   0.0000   0.0000   0.0000

          k = 0.0000 0.5000-0.5000 (  2119 PWs)   bands (ev):

    -3.6557   0.7830   2.5087   4.9411   8.6844  11.0300  11.3671  12.3880
    12.6505  15.8671  18.8327  19.3916  19.6816  22.8832  23.1786  23.6397
    24.8623  27.3424  27.8770  30.0334

     occupation numbers 
     1.0000   1.0000   1.0000   1.0000   0.0000   0.0000   0.0000   0.0000
     0.0000   0.0000   0.0000   0.0000   0.0000   0.0000   0.0000   0.0000
     0.0000   0.0000   0.0000   0.0000

          k = 0.7500-0.2500 0.2500 (  2123 PWs)   bands (ev):

    -2.9810  -0.1200   2.7280   4.0633   7.7536  10.6789  11.9842  12.1476
    16.4417  16.7326  18.3511  18.9217  19.2694  23.0391  23.8834  24.7902
    25.5434  25.7477  26.1050  29.0936

     occupation numbers 
     1.0000   1.0000   1.0000   1.0000   0.0000   0.0000   0.0000   0.0000
     0.0000   0.0000   0.0000   0.0000   0.0000   0.0000   0.0000   0.0000
     0.0000   0.0000   0.0000   0.0000

          k = 0.5000 0.0000 0.0000 (  2085 PWs)   bands (ev):

    -4.6180   2.7467   4.3768   4.3768   7.3703   9.3602  11.9965  11.9965
    14.2916  15.1203  17.6879  19.2123  19.2123  19.9370  23.6155  23.6155
    24.4746  26.5286  27.1142  31.0143

     occupation numbers 
     1.0000   1.0000   1.0000   1.0000   0.0000   0.0000   0.0000   0.0000
     0.0000   0.0000   0.0000   0.0000   0.0000   0.0000   0.0000   0.0000
     0.0000   0.0000   0.0000   0.0000

          k = 0.5000 0.5000 0.0000 (  2119 PWs)   bands (ev):

    -3.6557   0.7830   2.5087   4.9411   8.6844  11.0300  11.3671  12.3880
    12.6505  15.8671  18.8327  19.3916  19.6816  22.8832  23.1786  23.6397
    24.8623  27.3424  27.8770  30.0334

     occupation numbers 
     1.0000   1.0000   1.0000   1.0000   0.0000   0.0000   0.0000   0.0000
     0.0000   0.0000   0.0000   0.0000   0.0000   0.0000   0.0000   0.0000
     0.0000   0.0000   0.0000   0.0000

          k = 0.2500 0.7500-0.2500 (  2123 PWs)   bands (ev):

    -2.9810  -0.1200   2.7280   4.0633   7.7536  10.6789  11.9842  12.1476
    16.4417  16.7326  18.3511  18.9217  19.2694  23.0391  23.8834  24.7902
    25.5434  25.7477  26.1050  29.0936

     occupation numbers 
     1.0000   1.0000   1.0000   1.0000   0.0000   0.0000   0.0000   0.0000
     0.0000   0.0000   0.0000   0.0000   0.0000   0.0000   0.0000   0.0000
     0.0000   0.0000   0.0000   0.0000

          k = 1.0000 0.0000 0.5000 (  2148 PWs)   bands (ev):

    -1.3897  -1.3897   2.4089   2.4089  10.5006  10.5006  11.2390  11.2390
    16.7924  16.7924  19.2428  19.2428  22.6458  22.6458  24.8118  24.8118
    25.0749  25.0749  25.8968  25.8968

     occupation numbers 
     1.0000   1.0000   1.0000   1.0000   0.0000   0.0000   0.0000   0.0000
     0.0000   0.0000   0.0000   0.0000   0.0000   0.0000   0.0000   0.0000
     0.0000   0.0000   0.0000   0.0000

          k = 0.7500 0.2500 0.2500 (  2123 PWs)   bands (ev):

    -2.9810  -0.1200   2.7280   4.0633   7.7536  10.6789  11.9842  12.1476
    16.4417  16.7326  18.3511  18.9217  19.2694  23.0391  23.8834  24.7902
    25.5434  25.7477  26.1050  29.0936

     occupation numbers 
     1.0000   1.0000   1.0000   1.0000   0.0000   0.0000   0.0000   0.0000
     0.0000   0.0000   0.0000   0.0000   0.0000   0.0000   0.0000   0.0000
     0.0000   0.0000   0.0000   0.0000

          k =-0.2500-0.2500-0.7500 (  2123 PWs)   bands (ev):

    -2.9810  -0.1200   2.7280   4.0633   7.7536  10.6789  11.9842  12.1476
    16.4417  16.7326  18.3511  18.9217  19.2694  23.0391  23.8834  24.7902
    25.5434  25.7477  26.1050  29.0936

     occupation numbers 
     1.0000   1.0000   1.0000   1.0000   0.0000   0.0000   0.0000   0.0000
     0.0000   0.0000   0.0000   0.0000   0.0000   0.0000   0.0000   0.0000
     0.0000   0.0000   0.0000   0.0000

          k =-0.5000 0.0000-1.0000 (  2148 PWs)   bands (ev):

    -1.3897  -1.3897   2.4089   2.4089  10.5006  10.5006  11.2390  11.2390
    16.7924  16.7924  19.2428  19.2428  22.6458  22.6458  24.8118  24.8118
    25.0749  25.0749  25.8968  25.8968

     occupation numbers 
     1.0000   1.0000   1.0000   1.0000   0.0000   0.0000   0.0000   0.0000
     0.0000   0.0000   0.0000   0.0000   0.0000   0.0000   0.0000   0.0000
     0.0000   0.0000   0.0000   0.0000

          k = 0.2500-0.7500-0.2500 (  2123 PWs)   bands (ev):

    -2.9810  -0.1200   2.7280   4.0633   7.7536  10.6789  11.9842  12.1476
    16.4417  16.7326  18.3511  18.9217  19.2694  23.0391  23.8834  24.7902
    25.5434  25.7477  26.1050  29.0936

     occupation numbers 
     1.0000   1.0000   1.0000   1.0000   0.0000   0.0000   0.0000   0.0000
     0.0000   0.0000   0.0000   0.0000   0.0000   0.0000   0.0000   0.0000
     0.0000   0.0000   0.0000   0.0000

          k = 0.0000-0.5000-0.5000 (  2119 PWs)   bands (ev):

    -3.6557   0.7830   2.5087   4.9411   8.6844  11.0300  11.3671  12.3880
    12.6505  15.8671  18.8327  19.3916  19.6816  22.8832  23.1786  23.6397
    24.8623  27.3424  27.8770  30.0334

     occupation numbers 
     1.0000   1.0000   1.0000   1.0000   0.0000   0.0000   0.0000   0.0000
     0.0000   0.0000   0.0000   0.0000   0.0000   0.0000   0.0000   0.0000
     0.0000   0.0000   0.0000   0.0000

          k = 0.0000 0.0000-0.5000 (  2085 PWs)   bands (ev):

    -4.6180   2.7467   4.3768   4.3768   7.3703   9.3602  11.9965  11.9965
    14.2916  15.1203  17.6879  19.2123  19.2123  19.9370  23.6155  23.6155
    24.4746  26.5286  27.1142  31.0143

     occupation numbers 
     1.0000   1.0000   1.0000   1.0000   0.0000   0.0000   0.0000   0.0000
     0.0000   0.0000   0.0000   0.0000   0.0000   0.0000   0.0000   0.0000
     0.0000   0.0000   0.0000   0.0000

          k =-0.2500 0.2500-0.7500 (  2123 PWs)   bands (ev):

    -2.9810  -0.1200   2.7280   4.0633   7.7536  10.6789  11.9842  12.1476
    16.4417  16.7326  18.3511  18.9217  19.2694  23.0391  23.8834  24.7902
    25.5434  25.7477  26.1050  29.0936

     occupation numbers 
     1.0000   1.0000   1.0000   1.0000   0.0000   0.0000   0.0000   0.0000
     0.0000   0.0000   0.0000   0.0000   0.0000   0.0000   0.0000   0.0000
     0.0000   0.0000   0.0000   0.0000

          k = 0.5000-0.5000 0.0000 (  2119 PWs)   bands (ev):

    -3.6557   0.7830   2.5087   4.9411   8.6844  11.0300  11.3671  12.3880
    12.6505  15.8671  18.8327  19.3916  19.6816  22.8832  23.1786  23.6397
    24.8623  27.3424  27.8770  30.0334

     occupation numbers 
     1.0000   1.0000   1.0000   1.0000   0.0000   0.0000   0.0000   0.0000
     0.0000   0.0000   0.0000   0.0000   0.0000   0.0000   0.0000   0.0000
     0.0000   0.0000   0.0000   0.0000

          k = 0.2500-0.2500-0.2500 (  2106 PWs)   bands (ev):

    -4.9003   2.3352   5.5081   5.5081   8.2690   9.7463   9.7463  13.1651
    13.3999  13.3999  15.2300  18.0779  20.8259  20.8259  24.0387  24.0387
    24.1853  26.3178  30.0351  30.0351

     occupation numbers 
     1.0000   1.0000   1.0000   1.0000   0.0000   0.0000   0.0000   0.0000
     0.0000   0.0000   0.0000   0.0000   0.0000   0.0000   0.0000   0.0000
     0.0000   0.0000   0.0000   0.0000

     highest occupied, lowest unoccupied level (ev):     6.2661    6.9421

     Writing all to output data dir /scratch/elinscott/materials_cloud_archive/si/init/TMP/kc.save/
 
     init_run     :      0.02s CPU      0.03s WALL (       1 calls)
     electrons    :      1.19s CPU      1.27s WALL (       1 calls)

     Called by init_run:
     wfcinit      :      0.00s CPU      0.00s WALL (       1 calls)
     wfcinit:wfcr :      0.03s CPU      0.04s WALL (      16 calls)
     potinit      :      0.01s CPU      0.01s WALL (       1 calls)
     hinit0       :      0.00s CPU      0.02s WALL (       1 calls)

     Called by electrons:
     c_bands      :      1.19s CPU      1.27s WALL (       1 calls)
     v_of_rho     :      0.01s CPU      0.01s WALL (       1 calls)
     v_h          :      0.00s CPU      0.00s WALL (       1 calls)
     v_xc         :      0.01s CPU      0.01s WALL (       1 calls)

     Called by c_bands:
     init_us_2    :      0.00s CPU      0.00s WALL (      16 calls)
     init_us_2:cp :      0.00s CPU      0.00s WALL (      16 calls)
     cegterg      :      1.07s CPU      1.14s WALL (      33 calls)

     Called by sum_band:

     Called by *egterg:
     cdiaghg      :      0.24s CPU      0.25s WALL (     565 calls)
     cegterg:over :      0.06s CPU      0.06s WALL (     549 calls)
     cegterg:upda :      0.03s CPU      0.03s WALL (     549 calls)
     cegterg:last :      0.04s CPU      0.04s WALL (     351 calls)
     h_psi        :      0.72s CPU      0.77s WALL (     598 calls)
     g_psi        :      0.01s CPU      0.01s WALL (     549 calls)

     Called by h_psi:
     h_psi:calbec :      0.02s CPU      0.02s WALL (     598 calls)
     vloc_psi     :      0.68s CPU      0.73s WALL (     598 calls)
     add_vuspsi   :      0.01s CPU      0.01s WALL (     598 calls)

     General routines
     calbec       :      0.02s CPU      0.02s WALL (     598 calls)
     fft          :      0.01s CPU      0.01s WALL (      10 calls)
     fftw         :      0.57s CPU      0.61s WALL (   14862 calls)
     davcio       :      0.00s CPU      0.00s WALL (      32 calls)
 
     Parallel routines
 
     PWSCF        :      1.31s CPU      1.41s WALL

 
   This run was terminated on:  15: 5: 2   7Feb2023            

=------------------------------------------------------------------------------=
   JOB DONE.
=------------------------------------------------------------------------------=
