
     Program PWSCF v.7.1 starts on  7Feb2023 at 15:53:12 

     This program is part of the open-source Quantum ESPRESSO suite
     for quantum simulation of materials; please cite
         "P. Giannozzi et al., J. Phys.:Condens. Matter 21 395502 (2009);
         "P. Giannozzi et al., J. Phys.:Condens. Matter 29 465901 (2017);
         "P. Giannozzi et al., J. Chem. Phys. 152 154105 (2020);
          URL http://www.quantum-espresso.org", 
     in publications or presentations arising from this work. More details at
     http://www.quantum-espresso.org/quote

     Parallel version (MPI), running on    16 processors

     MPI processes distributed on     1 nodes
     65326 MiB available memory on the printing compute node when the environment starts
 
     Reading input from bands.pwi
Warning: card &IONS ignored
Warning: card / ignored
Warning: card &CELL ignored
Warning: card / ignored

     Current dimensions of program PWSCF are:
     Max number of different atomic species (ntypx) = 10
     Max number of k-points (npk) =  40000
     Max angular momentum in pseudopotentials (lmaxx) =  4

     Atomic positions and unit cell read from directory:
     /scratch/elinscott/materials_cloud_archive/si/postproc/TMP/kc_bands.save/
     Atomic positions from file used, from input discarded
 
 
     K-points division:     npool     =       4
     R & G space division:  proc/nbgrp/npool/nimage =       4
     Subspace diagonalization in iterative solution of the eigenvalue problem:
     a serial algorithm will be used

 
     Parallelization info
     --------------------
     sticks:   dense  smooth     PW     G-vecs:    dense   smooth      PW
     Min         214     214     63                 4221     4221     682
     Max         215     215     64                 4224     4224     686
     Sum         859     859    253                16889    16889    2733
 
     Using Slab Decomposition
 


     bravais-lattice index     =            2
     lattice parameter (alat)  =      10.2622  a.u.
     unit-cell volume          =     270.1851 (a.u.)^3
     number of atoms/cell      =            2
     number of atomic types    =            1
     number of electrons       =         8.00
     number of Kohn-Sham states=           20
     kinetic-energy cutoff     =      60.0000  Ry
     charge density cutoff     =     240.0000  Ry
     Exchange-correlation= PBE
                           (   1   4   3   4   0   0   0)

     celldm(1)=  10.262200  celldm(2)=   0.000000  celldm(3)=   0.000000
     celldm(4)=   0.000000  celldm(5)=   0.000000  celldm(6)=   0.000000

     crystal axes: (cart. coord. in units of alat)
               a(1) = (  -0.500000   0.000000   0.500000 )  
               a(2) = (   0.000000   0.500000   0.500000 )  
               a(3) = (  -0.500000   0.500000   0.000000 )  

     reciprocal axes: (cart. coord. in units 2 pi/alat)
               b(1) = ( -1.000000 -1.000000  1.000000 )  
               b(2) = (  1.000000  1.000000  1.000000 )  
               b(3) = ( -1.000000  1.000000 -1.000000 )  


     PseudoPot. # 1 for Si read from file:
     /home/elinscott/code/koopmans/src/koopmans/pseudopotentials/sg15_v1.2/pbe/Si_ONCV_PBE-1.2.upf
     MD5 check sum: 7f029a58b69e3aa87b46a36c608bf45e
     Pseudo is Norm-conserving, Zval =  4.0
     Generated using ONCVPSP code by D. R. Hamann
     Using radial grid of  602 points,  4 beta functions with: 
                l(1) =   0
                l(2) =   0
                l(3) =   1
                l(4) =   1

     atomic species   valence    mass     pseudopotential
        Si             4.00    28.08500     Si( 1.00)

     48 Sym. Ops., with inversion, found (24 have fractional translation)


                                    s                        frac. trans.

      isym =  1     identity                                     

 cryst.   s( 1) = (     1          0          0      )
                  (     0          1          0      )
                  (     0          0          1      )

 cart.    s( 1) = (  1.0000000  0.0000000  0.0000000 )
                  (  0.0000000  1.0000000  0.0000000 )
                  (  0.0000000  0.0000000  1.0000000 )


      isym =  2     180 deg rotation - cart. axis [0,0,1]        

 cryst.   s( 2) = (     0          1         -1      )
                  (     1          0         -1      )
                  (     0          0         -1      )

 cart.    s( 2) = ( -1.0000000  0.0000000  0.0000000 )
                  (  0.0000000 -1.0000000  0.0000000 )
                  (  0.0000000  0.0000000  1.0000000 )


      isym =  3     180 deg rotation - cart. axis [0,1,0]        

 cryst.   s( 3) = (    -1          0          0      )
                  (    -1          0          1      )
                  (    -1          1          0      )

 cart.    s( 3) = ( -1.0000000  0.0000000  0.0000000 )
                  (  0.0000000  1.0000000  0.0000000 )
                  (  0.0000000  0.0000000 -1.0000000 )


      isym =  4     180 deg rotation - cart. axis [1,0,0]        

 cryst.   s( 4) = (     0         -1          1      )
                  (     0         -1          0      )
                  (     1         -1          0      )

 cart.    s( 4) = (  1.0000000  0.0000000  0.0000000 )
                  (  0.0000000 -1.0000000  0.0000000 )
                  (  0.0000000  0.0000000 -1.0000000 )


      isym =  5     180 deg rotation - cart. axis [1,1,0]        

 cryst.   s( 5) = (     0         -1          0      )    f =( -0.2500000 )
                  (    -1          0          0      )       ( -0.2500000 )
                  (     0          0         -1      )       ( -0.2500000 )

 cart.    s( 5) = (  0.0000000  1.0000000  0.0000000 )    f =(  0.2500000 )
                  (  1.0000000  0.0000000  0.0000000 )       ( -0.2500000 )
                  (  0.0000000  0.0000000 -1.0000000 )       ( -0.2500000 )


      isym =  6     180 deg rotation - cart. axis [1,-1,0]       

 cryst.   s( 6) = (    -1          0          1      )    f =( -0.2500000 )
                  (     0         -1          1      )       ( -0.2500000 )
                  (     0          0          1      )       ( -0.2500000 )

 cart.    s( 6) = (  0.0000000 -1.0000000  0.0000000 )    f =(  0.2500000 )
                  ( -1.0000000  0.0000000  0.0000000 )       ( -0.2500000 )
                  (  0.0000000  0.0000000 -1.0000000 )       ( -0.2500000 )


      isym =  7      90 deg rotation - cart. axis [0,0,-1]       

 cryst.   s( 7) = (     0          1          0      )    f =( -0.2500000 )
                  (     0          1         -1      )       ( -0.2500000 )
                  (    -1          1          0      )       ( -0.2500000 )

 cart.    s( 7) = (  0.0000000  1.0000000  0.0000000 )    f =(  0.2500000 )
                  ( -1.0000000  0.0000000  0.0000000 )       ( -0.2500000 )
                  (  0.0000000  0.0000000  1.0000000 )       ( -0.2500000 )


      isym =  8      90 deg rotation - cart. axis [0,0,1]        

 cryst.   s( 8) = (     1          0         -1      )    f =( -0.2500000 )
                  (     1          0          0      )       ( -0.2500000 )
                  (     1         -1          0      )       ( -0.2500000 )

 cart.    s( 8) = (  0.0000000 -1.0000000  0.0000000 )    f =(  0.2500000 )
                  (  1.0000000  0.0000000  0.0000000 )       ( -0.2500000 )
                  (  0.0000000  0.0000000  1.0000000 )       ( -0.2500000 )


      isym =  9     180 deg rotation - cart. axis [1,0,1]        

 cryst.   s( 9) = (    -1          0          0      )    f =( -0.2500000 )
                  (     0          0         -1      )       ( -0.2500000 )
                  (     0         -1          0      )       ( -0.2500000 )

 cart.    s( 9) = (  0.0000000  0.0000000  1.0000000 )    f =(  0.2500000 )
                  (  0.0000000 -1.0000000  0.0000000 )       ( -0.2500000 )
                  (  1.0000000  0.0000000  0.0000000 )       ( -0.2500000 )


      isym = 10     180 deg rotation - cart. axis [-1,0,1]       

 cryst.   s(10) = (     1          0          0      )    f =( -0.2500000 )
                  (     1         -1          0      )       ( -0.2500000 )
                  (     1          0         -1      )       ( -0.2500000 )

 cart.    s(10) = (  0.0000000  0.0000000 -1.0000000 )    f =(  0.2500000 )
                  (  0.0000000 -1.0000000  0.0000000 )       ( -0.2500000 )
                  ( -1.0000000  0.0000000  0.0000000 )       ( -0.2500000 )


      isym = 11      90 deg rotation - cart. axis [0,1,0]        

 cryst.   s(11) = (     0          1         -1      )    f =( -0.2500000 )
                  (    -1          1          0      )       ( -0.2500000 )
                  (     0          1          0      )       ( -0.2500000 )

 cart.    s(11) = (  0.0000000  0.0000000  1.0000000 )    f =(  0.2500000 )
                  (  0.0000000  1.0000000  0.0000000 )       ( -0.2500000 )
                  ( -1.0000000  0.0000000  0.0000000 )       ( -0.2500000 )


      isym = 12      90 deg rotation - cart. axis [0,-1,0]       

 cryst.   s(12) = (     0         -1          1      )    f =( -0.2500000 )
                  (     0          0          1      )       ( -0.2500000 )
                  (    -1          0          1      )       ( -0.2500000 )

 cart.    s(12) = (  0.0000000  0.0000000 -1.0000000 )    f =(  0.2500000 )
                  (  0.0000000  1.0000000  0.0000000 )       ( -0.2500000 )
                  (  1.0000000  0.0000000  0.0000000 )       ( -0.2500000 )


      isym = 13     180 deg rotation - cart. axis [0,1,1]        

 cryst.   s(13) = (    -1          1          0      )    f =( -0.2500000 )
                  (     0          1          0      )       ( -0.2500000 )
                  (     0          1         -1      )       ( -0.2500000 )

 cart.    s(13) = ( -1.0000000  0.0000000  0.0000000 )    f =(  0.2500000 )
                  (  0.0000000  0.0000000  1.0000000 )       ( -0.2500000 )
                  (  0.0000000  1.0000000  0.0000000 )       ( -0.2500000 )


      isym = 14     180 deg rotation - cart. axis [0,1,-1]       

 cryst.   s(14) = (     0          0         -1      )    f =( -0.2500000 )
                  (     0         -1          0      )       ( -0.2500000 )
                  (    -1          0          0      )       ( -0.2500000 )

 cart.    s(14) = ( -1.0000000  0.0000000  0.0000000 )    f =(  0.2500000 )
                  (  0.0000000  0.0000000 -1.0000000 )       ( -0.2500000 )
                  (  0.0000000 -1.0000000  0.0000000 )       ( -0.2500000 )


      isym = 15      90 deg rotation - cart. axis [-1,0,0]       

 cryst.   s(15) = (     0          0          1      )    f =( -0.2500000 )
                  (    -1          0          1      )       ( -0.2500000 )
                  (     0         -1          1      )       ( -0.2500000 )

 cart.    s(15) = (  1.0000000  0.0000000  0.0000000 )    f =(  0.2500000 )
                  (  0.0000000  0.0000000  1.0000000 )       ( -0.2500000 )
                  (  0.0000000 -1.0000000  0.0000000 )       ( -0.2500000 )


      isym = 16      90 deg rotation - cart. axis [1,0,0]        

 cryst.   s(16) = (     1         -1          0      )    f =( -0.2500000 )
                  (     1          0         -1      )       ( -0.2500000 )
                  (     1          0          0      )       ( -0.2500000 )

 cart.    s(16) = (  1.0000000  0.0000000  0.0000000 )    f =(  0.2500000 )
                  (  0.0000000  0.0000000 -1.0000000 )       ( -0.2500000 )
                  (  0.0000000  1.0000000  0.0000000 )       ( -0.2500000 )


      isym = 17     120 deg rotation - cart. axis [-1,-1,-1]     

 cryst.   s(17) = (    -1          0          1      )
                  (    -1          1          0      )
                  (    -1          0          0      )

 cart.    s(17) = (  0.0000000  1.0000000  0.0000000 )
                  (  0.0000000  0.0000000  1.0000000 )
                  (  1.0000000  0.0000000  0.0000000 )


      isym = 18     120 deg rotation - cart. axis [-1,1,1]       

 cryst.   s(18) = (     0          1          0      )
                  (     0          0          1      )
                  (     1          0          0      )

 cart.    s(18) = (  0.0000000 -1.0000000  0.0000000 )
                  (  0.0000000  0.0000000  1.0000000 )
                  ( -1.0000000  0.0000000  0.0000000 )


      isym = 19     120 deg rotation - cart. axis [1,1,-1]       

 cryst.   s(19) = (     1          0         -1      )
                  (     0          0         -1      )
                  (     0          1         -1      )

 cart.    s(19) = (  0.0000000  1.0000000  0.0000000 )
                  (  0.0000000  0.0000000 -1.0000000 )
                  ( -1.0000000  0.0000000  0.0000000 )


      isym = 20     120 deg rotation - cart. axis [1,-1,1]       

 cryst.   s(20) = (     0         -1          0      )
                  (     1         -1          0      )
                  (     0         -1          1      )

 cart.    s(20) = (  0.0000000 -1.0000000  0.0000000 )
                  (  0.0000000  0.0000000 -1.0000000 )
                  (  1.0000000  0.0000000  0.0000000 )


      isym = 21     120 deg rotation - cart. axis [1,1,1]        

 cryst.   s(21) = (     0          0         -1      )
                  (     0          1         -1      )
                  (     1          0         -1      )

 cart.    s(21) = (  0.0000000  0.0000000  1.0000000 )
                  (  1.0000000  0.0000000  0.0000000 )
                  (  0.0000000  1.0000000  0.0000000 )


      isym = 22     120 deg rotation - cart. axis [-1,1,-1]      

 cryst.   s(22) = (    -1          1          0      )
                  (    -1          0          0      )
                  (    -1          0          1      )

 cart.    s(22) = (  0.0000000  0.0000000  1.0000000 )
                  ( -1.0000000  0.0000000  0.0000000 )
                  (  0.0000000 -1.0000000  0.0000000 )


      isym = 23     120 deg rotation - cart. axis [1,-1,-1]      

 cryst.   s(23) = (     0          0          1      )
                  (     1          0          0      )
                  (     0          1          0      )

 cart.    s(23) = (  0.0000000  0.0000000 -1.0000000 )
                  ( -1.0000000  0.0000000  0.0000000 )
                  (  0.0000000  1.0000000  0.0000000 )


      isym = 24     120 deg rotation - cart. axis [-1,-1,1]      

 cryst.   s(24) = (     1         -1          0      )
                  (     0         -1          1      )
                  (     0         -1          0      )

 cart.    s(24) = (  0.0000000  0.0000000 -1.0000000 )
                  (  1.0000000  0.0000000  0.0000000 )
                  (  0.0000000 -1.0000000  0.0000000 )


      isym = 25     inversion                                    

 cryst.   s(25) = (    -1          0          0      )    f =( -0.2500000 )
                  (     0         -1          0      )       ( -0.2500000 )
                  (     0          0         -1      )       ( -0.2500000 )

 cart.    s(25) = ( -1.0000000  0.0000000  0.0000000 )    f =(  0.2500000 )
                  (  0.0000000 -1.0000000  0.0000000 )       ( -0.2500000 )
                  (  0.0000000  0.0000000 -1.0000000 )       ( -0.2500000 )


      isym = 26     inv. 180 deg rotation - cart. axis [0,0,1]   

 cryst.   s(26) = (     0         -1          1      )    f =( -0.2500000 )
                  (    -1          0          1      )       ( -0.2500000 )
                  (     0          0          1      )       ( -0.2500000 )

 cart.    s(26) = (  1.0000000  0.0000000  0.0000000 )    f =(  0.2500000 )
                  (  0.0000000  1.0000000  0.0000000 )       ( -0.2500000 )
                  (  0.0000000  0.0000000 -1.0000000 )       ( -0.2500000 )


      isym = 27     inv. 180 deg rotation - cart. axis [0,1,0]   

 cryst.   s(27) = (     1          0          0      )    f =( -0.2500000 )
                  (     1          0         -1      )       ( -0.2500000 )
                  (     1         -1          0      )       ( -0.2500000 )

 cart.    s(27) = (  1.0000000  0.0000000  0.0000000 )    f =(  0.2500000 )
                  (  0.0000000 -1.0000000  0.0000000 )       ( -0.2500000 )
                  (  0.0000000  0.0000000  1.0000000 )       ( -0.2500000 )


      isym = 28     inv. 180 deg rotation - cart. axis [1,0,0]   

 cryst.   s(28) = (     0          1         -1      )    f =( -0.2500000 )
                  (     0          1          0      )       ( -0.2500000 )
                  (    -1          1          0      )       ( -0.2500000 )

 cart.    s(28) = ( -1.0000000  0.0000000  0.0000000 )    f =(  0.2500000 )
                  (  0.0000000  1.0000000  0.0000000 )       ( -0.2500000 )
                  (  0.0000000  0.0000000  1.0000000 )       ( -0.2500000 )


      isym = 29     inv. 180 deg rotation - cart. axis [1,1,0]   

 cryst.   s(29) = (     0          1          0      )
                  (     1          0          0      )
                  (     0          0          1      )

 cart.    s(29) = (  0.0000000 -1.0000000  0.0000000 )
                  ( -1.0000000  0.0000000  0.0000000 )
                  (  0.0000000  0.0000000  1.0000000 )


      isym = 30     inv. 180 deg rotation - cart. axis [1,-1,0]  

 cryst.   s(30) = (     1          0         -1      )
                  (     0          1         -1      )
                  (     0          0         -1      )

 cart.    s(30) = (  0.0000000  1.0000000  0.0000000 )
                  (  1.0000000  0.0000000  0.0000000 )
                  (  0.0000000  0.0000000  1.0000000 )


      isym = 31     inv.  90 deg rotation - cart. axis [0,0,-1]  

 cryst.   s(31) = (     0         -1          0      )
                  (     0         -1          1      )
                  (     1         -1          0      )

 cart.    s(31) = (  0.0000000 -1.0000000  0.0000000 )
                  (  1.0000000  0.0000000  0.0000000 )
                  (  0.0000000  0.0000000 -1.0000000 )


      isym = 32     inv.  90 deg rotation - cart. axis [0,0,1]   

 cryst.   s(32) = (    -1          0          1      )
                  (    -1          0          0      )
                  (    -1          1          0      )

 cart.    s(32) = (  0.0000000  1.0000000  0.0000000 )
                  ( -1.0000000  0.0000000  0.0000000 )
                  (  0.0000000  0.0000000 -1.0000000 )


      isym = 33     inv. 180 deg rotation - cart. axis [1,0,1]   

 cryst.   s(33) = (     1          0          0      )
                  (     0          0          1      )
                  (     0          1          0      )

 cart.    s(33) = (  0.0000000  0.0000000 -1.0000000 )
                  (  0.0000000  1.0000000  0.0000000 )
                  ( -1.0000000  0.0000000  0.0000000 )


      isym = 34     inv. 180 deg rotation - cart. axis [-1,0,1]  

 cryst.   s(34) = (    -1          0          0      )
                  (    -1          1          0      )
                  (    -1          0          1      )

 cart.    s(34) = (  0.0000000  0.0000000  1.0000000 )
                  (  0.0000000  1.0000000  0.0000000 )
                  (  1.0000000  0.0000000  0.0000000 )


      isym = 35     inv.  90 deg rotation - cart. axis [0,1,0]   

 cryst.   s(35) = (     0         -1          1      )
                  (     1         -1          0      )
                  (     0         -1          0      )

 cart.    s(35) = (  0.0000000  0.0000000 -1.0000000 )
                  (  0.0000000 -1.0000000  0.0000000 )
                  (  1.0000000  0.0000000  0.0000000 )


      isym = 36     inv.  90 deg rotation - cart. axis [0,-1,0]  

 cryst.   s(36) = (     0          1         -1      )
                  (     0          0         -1      )
                  (     1          0         -1      )

 cart.    s(36) = (  0.0000000  0.0000000  1.0000000 )
                  (  0.0000000 -1.0000000  0.0000000 )
                  ( -1.0000000  0.0000000  0.0000000 )


      isym = 37     inv. 180 deg rotation - cart. axis [0,1,1]   

 cryst.   s(37) = (     1         -1          0      )
                  (     0         -1          0      )
                  (     0         -1          1      )

 cart.    s(37) = (  1.0000000  0.0000000  0.0000000 )
                  (  0.0000000  0.0000000 -1.0000000 )
                  (  0.0000000 -1.0000000  0.0000000 )


      isym = 38     inv. 180 deg rotation - cart. axis [0,1,-1]  

 cryst.   s(38) = (     0          0          1      )
                  (     0          1          0      )
                  (     1          0          0      )

 cart.    s(38) = (  1.0000000  0.0000000  0.0000000 )
                  (  0.0000000  0.0000000  1.0000000 )
                  (  0.0000000  1.0000000  0.0000000 )


      isym = 39     inv.  90 deg rotation - cart. axis [-1,0,0]  

 cryst.   s(39) = (     0          0         -1      )
                  (     1          0         -1      )
                  (     0          1         -1      )

 cart.    s(39) = ( -1.0000000  0.0000000  0.0000000 )
                  (  0.0000000  0.0000000 -1.0000000 )
                  (  0.0000000  1.0000000  0.0000000 )


      isym = 40     inv.  90 deg rotation - cart. axis [1,0,0]   

 cryst.   s(40) = (    -1          1          0      )
                  (    -1          0          1      )
                  (    -1          0          0      )

 cart.    s(40) = ( -1.0000000  0.0000000  0.0000000 )
                  (  0.0000000  0.0000000  1.0000000 )
                  (  0.0000000 -1.0000000  0.0000000 )


      isym = 41     inv. 120 deg rotation - cart. axis [-1,-1,-1]

 cryst.   s(41) = (     1          0         -1      )    f =( -0.2500000 )
                  (     1         -1          0      )       ( -0.2500000 )
                  (     1          0          0      )       ( -0.2500000 )

 cart.    s(41) = (  0.0000000 -1.0000000  0.0000000 )    f =(  0.2500000 )
                  (  0.0000000  0.0000000 -1.0000000 )       ( -0.2500000 )
                  ( -1.0000000  0.0000000  0.0000000 )       ( -0.2500000 )


      isym = 42     inv. 120 deg rotation - cart. axis [-1,1,1]  

 cryst.   s(42) = (     0         -1          0      )    f =( -0.2500000 )
                  (     0          0         -1      )       ( -0.2500000 )
                  (    -1          0          0      )       ( -0.2500000 )

 cart.    s(42) = (  0.0000000  1.0000000  0.0000000 )    f =(  0.2500000 )
                  (  0.0000000  0.0000000 -1.0000000 )       ( -0.2500000 )
                  (  1.0000000  0.0000000  0.0000000 )       ( -0.2500000 )


      isym = 43     inv. 120 deg rotation - cart. axis [1,1,-1]  

 cryst.   s(43) = (    -1          0          1      )    f =( -0.2500000 )
                  (     0          0          1      )       ( -0.2500000 )
                  (     0         -1          1      )       ( -0.2500000 )

 cart.    s(43) = (  0.0000000 -1.0000000  0.0000000 )    f =(  0.2500000 )
                  (  0.0000000  0.0000000  1.0000000 )       ( -0.2500000 )
                  (  1.0000000  0.0000000  0.0000000 )       ( -0.2500000 )


      isym = 44     inv. 120 deg rotation - cart. axis [1,-1,1]  

 cryst.   s(44) = (     0          1          0      )    f =( -0.2500000 )
                  (    -1          1          0      )       ( -0.2500000 )
                  (     0          1         -1      )       ( -0.2500000 )

 cart.    s(44) = (  0.0000000  1.0000000  0.0000000 )    f =(  0.2500000 )
                  (  0.0000000  0.0000000  1.0000000 )       ( -0.2500000 )
                  ( -1.0000000  0.0000000  0.0000000 )       ( -0.2500000 )


      isym = 45     inv. 120 deg rotation - cart. axis [1,1,1]   

 cryst.   s(45) = (     0          0          1      )    f =( -0.2500000 )
                  (     0         -1          1      )       ( -0.2500000 )
                  (    -1          0          1      )       ( -0.2500000 )

 cart.    s(45) = (  0.0000000  0.0000000 -1.0000000 )    f =(  0.2500000 )
                  ( -1.0000000  0.0000000  0.0000000 )       ( -0.2500000 )
                  (  0.0000000 -1.0000000  0.0000000 )       ( -0.2500000 )


      isym = 46     inv. 120 deg rotation - cart. axis [-1,1,-1] 

 cryst.   s(46) = (     1         -1          0      )    f =( -0.2500000 )
                  (     1          0          0      )       ( -0.2500000 )
                  (     1          0         -1      )       ( -0.2500000 )

 cart.    s(46) = (  0.0000000  0.0000000 -1.0000000 )    f =(  0.2500000 )
                  (  1.0000000  0.0000000  0.0000000 )       ( -0.2500000 )
                  (  0.0000000  1.0000000  0.0000000 )       ( -0.2500000 )


      isym = 47     inv. 120 deg rotation - cart. axis [1,-1,-1] 

 cryst.   s(47) = (     0          0         -1      )    f =( -0.2500000 )
                  (    -1          0          0      )       ( -0.2500000 )
                  (     0         -1          0      )       ( -0.2500000 )

 cart.    s(47) = (  0.0000000  0.0000000  1.0000000 )    f =(  0.2500000 )
                  (  1.0000000  0.0000000  0.0000000 )       ( -0.2500000 )
                  (  0.0000000 -1.0000000  0.0000000 )       ( -0.2500000 )


      isym = 48     inv. 120 deg rotation - cart. axis [-1,-1,1] 

 cryst.   s(48) = (    -1          1          0      )    f =( -0.2500000 )
                  (     0          1         -1      )       ( -0.2500000 )
                  (     0          1          0      )       ( -0.2500000 )

 cart.    s(48) = (  0.0000000  0.0000000  1.0000000 )    f =(  0.2500000 )
                  ( -1.0000000  0.0000000  0.0000000 )       ( -0.2500000 )
                  (  0.0000000  1.0000000  0.0000000 )       ( -0.2500000 )


     point group O_h (m-3m) 
     there are 10 classes
     the character table:

       E     8C3   3C2   6C4   6C2'  i     8S6   3s_h  6S4   6s_d 
A_1g   1.00  1.00  1.00  1.00  1.00  1.00  1.00  1.00  1.00  1.00
A_2g   1.00  1.00  1.00 -1.00 -1.00  1.00  1.00  1.00 -1.00 -1.00
E_g    2.00 -1.00  2.00  0.00  0.00  2.00 -1.00  2.00  0.00  0.00
T_1g   3.00  0.00 -1.00  1.00 -1.00  3.00  0.00 -1.00  1.00 -1.00
T_2g   3.00  0.00 -1.00 -1.00  1.00  3.00  0.00 -1.00 -1.00  1.00
A_1u   1.00  1.00  1.00  1.00  1.00 -1.00 -1.00 -1.00 -1.00 -1.00
A_2u   1.00  1.00  1.00 -1.00 -1.00 -1.00 -1.00 -1.00  1.00  1.00
E_u    2.00 -1.00  2.00  0.00  0.00 -2.00  1.00 -2.00  0.00  0.00
T_1u   3.00  0.00 -1.00  1.00 -1.00 -3.00  0.00  1.00 -1.00  1.00
T_2u   3.00  0.00 -1.00 -1.00  1.00 -3.00  0.00  1.00  1.00 -1.00

     the symmetry operations in each class and the name of the first element:

     E        1
          identity                                               
     8C3     17   19   20   18   24   21   22   23
          120 deg rotation - cart. axis [-1,-1,-1]               
     3C2      2    4    3
          180 deg rotation - cart. axis [0,0,1]                  
     6C4      7    8   15   16   12   11
           90 deg rotation - cart. axis [0,0,-1]                 
     6C2'     5    6   14   13   10    9
          180 deg rotation - cart. axis [1,1,0]                  
     i       25
          inversion                                              
     8S6     41   43   44   42   48   45   46   47
          inv. 120 deg rotation - cart. axis [-1,-1,-1]          
     3s_h    26   28   27
          inv. 180 deg rotation - cart. axis [0,0,1]             
     6S4     31   32   39   40   36   35
          inv.  90 deg rotation - cart. axis [0,0,-1]            
     6s_d    29   30   38   37   34   33
          inv. 180 deg rotation - cart. axis [1,1,0]             

   Cartesian axes

     site n.     atom                  positions (alat units)
         1           Si  tau(   1) = (   0.0000000   0.0000000   0.0000000  )
         2           Si  tau(   2) = (  -0.2500000   0.2500000   0.2500000  )

   Crystallographic axes

     site n.     atom                  positions (cryst. coord.)
         1           Si  tau(   1) = (  0.0000000  0.0000000  0.0000000  )
         2           Si  tau(   2) = (  0.2500000  0.2500000  0.2500000  )

     number of k points=    74
                       cart. coord. in units 2pi/alat
        k(    1) = (   0.0000000   0.0000000   0.0000000), wk =   0.0270270
        k(    2) = (  -0.0909091   0.0000000   0.0000000), wk =   0.0270270
        k(    3) = (  -0.1818182   0.0000000   0.0000000), wk =   0.0270270
        k(    4) = (  -0.2727273   0.0000000   0.0000000), wk =   0.0270270
        k(    5) = (  -0.3636364   0.0000000   0.0000000), wk =   0.0270270
        k(    6) = (  -0.4545455   0.0000000   0.0000000), wk =   0.0270270
        k(    7) = (  -0.5454545   0.0000000   0.0000000), wk =   0.0270270
        k(    8) = (  -0.6363636   0.0000000   0.0000000), wk =   0.0270270
        k(    9) = (  -0.7272727   0.0000000   0.0000000), wk =   0.0270270
        k(   10) = (  -0.8181818   0.0000000   0.0000000), wk =   0.0270270
        k(   11) = (  -0.9090909   0.0000000   0.0000000), wk =   0.0270270
        k(   12) = (  -1.0000000   0.0000000   0.0000000), wk =   0.0270270
        k(   13) = (  -1.0000000   0.1000000  -0.0000000), wk =   0.0270270
        k(   14) = (  -1.0000000   0.2000000   0.0000000), wk =   0.0270270
        k(   15) = (  -1.0000000   0.3000000   0.0000000), wk =   0.0270270
        k(   16) = (  -1.0000000   0.4000000   0.0000000), wk =   0.0270270
        k(   17) = (  -1.0000000   0.5000000   0.0000000), wk =   0.0270270
        k(   18) = (  -0.9166667   0.5833333   0.0000000), wk =   0.0270270
        k(   19) = (  -0.8333333   0.6666667   0.0000000), wk =   0.0270270
        k(   20) = (  -0.7500000   0.7500000   0.0000000), wk =   0.0270270
        k(   21) = (  -0.6875000   0.6875000   0.0000000), wk =   0.0270270
        k(   22) = (  -0.6250000   0.6250000   0.0000000), wk =   0.0270270
        k(   23) = (  -0.5625000   0.5625000   0.0000000), wk =   0.0270270
        k(   24) = (  -0.5000000   0.5000000   0.0000000), wk =   0.0270270
        k(   25) = (  -0.4375000   0.4375000   0.0000000), wk =   0.0270270
        k(   26) = (  -0.3750000   0.3750000   0.0000000), wk =   0.0270270
        k(   27) = (  -0.3125000   0.3125000   0.0000000), wk =   0.0270270
        k(   28) = (  -0.2500000   0.2500000   0.0000000), wk =   0.0270270
        k(   29) = (  -0.1875000   0.1875000   0.0000000), wk =   0.0270270
        k(   30) = (  -0.1250000   0.1250000   0.0000000), wk =   0.0270270
        k(   31) = (  -0.0625000   0.0625000   0.0000000), wk =   0.0270270
        k(   32) = (   0.0000000   0.0000000   0.0000000), wk =   0.0270270
        k(   33) = (  -0.0500000   0.0500000   0.0500000), wk =   0.0270270
        k(   34) = (  -0.1000000   0.1000000   0.1000000), wk =   0.0270270
        k(   35) = (  -0.1500000   0.1500000   0.1500000), wk =   0.0270270
        k(   36) = (  -0.2000000   0.2000000   0.2000000), wk =   0.0270270
        k(   37) = (  -0.2500000   0.2500000   0.2500000), wk =   0.0270270
        k(   38) = (  -0.3000000   0.3000000   0.3000000), wk =   0.0270270
        k(   39) = (  -0.3500000   0.3500000   0.3500000), wk =   0.0270270
        k(   40) = (  -0.4000000   0.4000000   0.4000000), wk =   0.0270270
        k(   41) = (  -0.4500000   0.4500000   0.4500000), wk =   0.0270270
        k(   42) = (  -0.5000000   0.5000000   0.5000000), wk =   0.0270270
        k(   43) = (  -0.5714286   0.4642857   0.4642857), wk =   0.0270270
        k(   44) = (  -0.6428571   0.4285714   0.4285714), wk =   0.0270270
        k(   45) = (  -0.7142857   0.3928571   0.3928571), wk =   0.0270270
        k(   46) = (  -0.7857143   0.3571429   0.3571429), wk =   0.0270270
        k(   47) = (  -0.8571429   0.3214286   0.3214286), wk =   0.0270270
        k(   48) = (  -0.9285714   0.2857143   0.2857143), wk =   0.0270270
        k(   49) = (  -1.0000000   0.2500000   0.2500000), wk =   0.0270270
        k(   50) = (  -1.0000000   0.3125000   0.1875000), wk =   0.0270270
        k(   51) = (  -1.0000000   0.3750000   0.1250000), wk =   0.0270270
        k(   52) = (  -1.0000000   0.4375000   0.0625000), wk =   0.0270270
        k(   53) = (  -1.0000000   0.5000000   0.0000000), wk =   0.0270270
        k(   54) = (  -0.9375000   0.5000000   0.0625000), wk =   0.0270270
        k(   55) = (  -0.8750000   0.5000000   0.1250000), wk =   0.0270270
        k(   56) = (  -0.8125000   0.5000000   0.1875000), wk =   0.0270270
        k(   57) = (  -0.7500000   0.5000000   0.2500000), wk =   0.0270270
        k(   58) = (  -0.6875000   0.5000000   0.3125000), wk =   0.0270270
        k(   59) = (  -0.6250000   0.5000000   0.3750000), wk =   0.0270270
        k(   60) = (  -0.5625000   0.5000000   0.4375000), wk =   0.0270270
        k(   61) = (  -0.5000000   0.5000000   0.5000000), wk =   0.0270270
        k(   62) = (  -0.5312500   0.5312500   0.4375000), wk =   0.0270270
        k(   63) = (  -0.5625000   0.5625000   0.3750000), wk =   0.0270270
        k(   64) = (  -0.5937500   0.5937500   0.3125000), wk =   0.0270270
        k(   65) = (  -0.6250000   0.6250000   0.2500000), wk =   0.0270270
        k(   66) = (  -0.6562500   0.6562500   0.1875000), wk =   0.0270270
        k(   67) = (  -0.6875000   0.6875000   0.1250000), wk =   0.0270270
        k(   68) = (  -0.7187500   0.7187500   0.0625000), wk =   0.0270270
        k(   69) = (  -0.7500000   0.7500000   0.0000000), wk =   0.0270270
        k(   70) = (  -1.0000000   0.2500000   0.2500000), wk =   0.0270270
        k(   71) = (  -1.0000000   0.1875000   0.1875000), wk =   0.0270270
        k(   72) = (  -1.0000000   0.1250000   0.1250000), wk =   0.0270270
        k(   73) = (  -1.0000000   0.0625000   0.0625000), wk =   0.0270270
        k(   74) = (  -1.0000000   0.0000000   0.0000000), wk =   0.0270270

                       cryst. coord.
        k(    1) = (   0.0000000   0.0000000   0.0000000), wk =   0.0270270
        k(    2) = (   0.0454545   0.0000000   0.0454545), wk =   0.0270270
        k(    3) = (   0.0909091   0.0000000   0.0909091), wk =   0.0270270
        k(    4) = (   0.1363636   0.0000000   0.1363636), wk =   0.0270270
        k(    5) = (   0.1818182   0.0000000   0.1818182), wk =   0.0270270
        k(    6) = (   0.2272727   0.0000000   0.2272727), wk =   0.0270270
        k(    7) = (   0.2727273   0.0000000   0.2727273), wk =   0.0270270
        k(    8) = (   0.3181818   0.0000000   0.3181818), wk =   0.0270270
        k(    9) = (   0.3636364   0.0000000   0.3636364), wk =   0.0270270
        k(   10) = (   0.4090909   0.0000000   0.4090909), wk =   0.0270270
        k(   11) = (   0.4545455   0.0000000   0.4545455), wk =   0.0270270
        k(   12) = (   0.5000000   0.0000000   0.5000000), wk =   0.0270270
        k(   13) = (   0.5000000   0.0500000   0.5500000), wk =   0.0270270
        k(   14) = (   0.5000000   0.1000000   0.6000000), wk =   0.0270270
        k(   15) = (   0.5000000   0.1500000   0.6500000), wk =   0.0270270
        k(   16) = (   0.5000000   0.2000000   0.7000000), wk =   0.0270270
        k(   17) = (   0.5000000   0.2500000   0.7500000), wk =   0.0270270
        k(   18) = (   0.4583333   0.2916667   0.7500000), wk =   0.0270270
        k(   19) = (   0.4166667   0.3333333   0.7500000), wk =   0.0270270
        k(   20) = (   0.3750000   0.3750000   0.7500000), wk =   0.0270270
        k(   21) = (   0.3437500   0.3437500   0.6875000), wk =   0.0270270
        k(   22) = (   0.3125000   0.3125000   0.6250000), wk =   0.0270270
        k(   23) = (   0.2812500   0.2812500   0.5625000), wk =   0.0270270
        k(   24) = (   0.2500000   0.2500000   0.5000000), wk =   0.0270270
        k(   25) = (   0.2187500   0.2187500   0.4375000), wk =   0.0270270
        k(   26) = (   0.1875000   0.1875000   0.3750000), wk =   0.0270270
        k(   27) = (   0.1562500   0.1562500   0.3125000), wk =   0.0270270
        k(   28) = (   0.1250000   0.1250000   0.2500000), wk =   0.0270270
        k(   29) = (   0.0937500   0.0937500   0.1875000), wk =   0.0270270
        k(   30) = (   0.0625000   0.0625000   0.1250000), wk =   0.0270270
        k(   31) = (   0.0312500   0.0312500   0.0625000), wk =   0.0270270
        k(   32) = (   0.0000000   0.0000000   0.0000000), wk =   0.0270270
        k(   33) = (   0.0500000   0.0500000   0.0500000), wk =   0.0270270
        k(   34) = (   0.1000000   0.1000000   0.1000000), wk =   0.0270270
        k(   35) = (   0.1500000   0.1500000   0.1500000), wk =   0.0270270
        k(   36) = (   0.2000000   0.2000000   0.2000000), wk =   0.0270270
        k(   37) = (   0.2500000   0.2500000   0.2500000), wk =   0.0270270
        k(   38) = (   0.3000000   0.3000000   0.3000000), wk =   0.0270270
        k(   39) = (   0.3500000   0.3500000   0.3500000), wk =   0.0270270
        k(   40) = (   0.4000000   0.4000000   0.4000000), wk =   0.0270270
        k(   41) = (   0.4500000   0.4500000   0.4500000), wk =   0.0270270
        k(   42) = (   0.5000000   0.5000000   0.5000000), wk =   0.0270270
        k(   43) = (   0.5178571   0.4642857   0.5178571), wk =   0.0270270
        k(   44) = (   0.5357143   0.4285714   0.5357143), wk =   0.0270270
        k(   45) = (   0.5535714   0.3928571   0.5535714), wk =   0.0270270
        k(   46) = (   0.5714286   0.3571429   0.5714286), wk =   0.0270270
        k(   47) = (   0.5892857   0.3214286   0.5892857), wk =   0.0270270
        k(   48) = (   0.6071429   0.2857143   0.6071429), wk =   0.0270270
        k(   49) = (   0.6250000   0.2500000   0.6250000), wk =   0.0270270
        k(   50) = (   0.5937500   0.2500000   0.6562500), wk =   0.0270270
        k(   51) = (   0.5625000   0.2500000   0.6875000), wk =   0.0270270
        k(   52) = (   0.5312500   0.2500000   0.7187500), wk =   0.0270270
        k(   53) = (   0.5000000   0.2500000   0.7500000), wk =   0.0270270
        k(   54) = (   0.5000000   0.2812500   0.7187500), wk =   0.0270270
        k(   55) = (   0.5000000   0.3125000   0.6875000), wk =   0.0270270
        k(   56) = (   0.5000000   0.3437500   0.6562500), wk =   0.0270270
        k(   57) = (   0.5000000   0.3750000   0.6250000), wk =   0.0270270
        k(   58) = (   0.5000000   0.4062500   0.5937500), wk =   0.0270270
        k(   59) = (   0.5000000   0.4375000   0.5625000), wk =   0.0270270
        k(   60) = (   0.5000000   0.4687500   0.5312500), wk =   0.0270270
        k(   61) = (   0.5000000   0.5000000   0.5000000), wk =   0.0270270
        k(   62) = (   0.4843750   0.4843750   0.5312500), wk =   0.0270270
        k(   63) = (   0.4687500   0.4687500   0.5625000), wk =   0.0270270
        k(   64) = (   0.4531250   0.4531250   0.5937500), wk =   0.0270270
        k(   65) = (   0.4375000   0.4375000   0.6250000), wk =   0.0270270
        k(   66) = (   0.4218750   0.4218750   0.6562500), wk =   0.0270270
        k(   67) = (   0.4062500   0.4062500   0.6875000), wk =   0.0270270
        k(   68) = (   0.3906250   0.3906250   0.7187500), wk =   0.0270270
        k(   69) = (   0.3750000   0.3750000   0.7500000), wk =   0.0270270
        k(   70) = (   0.6250000   0.2500000   0.6250000), wk =   0.0270270
        k(   71) = (   0.5937500   0.1875000   0.5937500), wk =   0.0270270
        k(   72) = (   0.5625000   0.1250000   0.5625000), wk =   0.0270270
        k(   73) = (   0.5312500   0.0625000   0.5312500), wk =   0.0270270
        k(   74) = (   0.5000000   0.0000000   0.5000000), wk =   0.0270270

     Dense  grid:    16889 G-vectors     FFT dimensions: (  36,  36,  36)

     Dynamical RAM for                 wfc:       0.16 MB

     Dynamical RAM for     wfc (w. buffer):       0.16 MB

     Dynamical RAM for           str. fact:       0.06 MB

     Dynamical RAM for           local pot:       0.00 MB

     Dynamical RAM for          nlocal pot:       0.13 MB

     Dynamical RAM for                qrad:       0.36 MB

     Dynamical RAM for          rho,v,vnew:       0.46 MB

     Dynamical RAM for           G-vectors:       0.27 MB

     Dynamical RAM for          h,s,v(r/c):       0.07 MB

     Dynamical RAM for          <psi|beta>:       0.00 MB

     Dynamical RAM for                 psi:       0.32 MB

     Dynamical RAM for                hpsi:       0.32 MB

     Dynamical RAM for      wfcinit/wfcrot:       0.33 MB

     Estimated static dynamical RAM per process >       2.02 MB

     Estimated max dynamical RAM per process >       2.74 MB

     Estimated total dynamical RAM >      43.91 MB

     The potential is recalculated from file :
     /scratch/elinscott/materials_cloud_archive/si/postproc/TMP/kc_bands.save/charge-density

     Starting wfcs are random

     Band Structure Calculation
     Davidson diagonalization with overlap

     Computing kpt #:     1  of    19 on this pool
     total cpu time spent up to now is        0.6 secs

     Computing kpt #:     2  of    19 on this pool
     total cpu time spent up to now is        0.7 secs

     Computing kpt #:     3  of    19 on this pool
     total cpu time spent up to now is        0.8 secs

     Computing kpt #:     4  of    19 on this pool
     total cpu time spent up to now is        0.9 secs

     Computing kpt #:     5  of    19 on this pool
     total cpu time spent up to now is        0.9 secs

     Computing kpt #:     6  of    19 on this pool
     total cpu time spent up to now is        1.0 secs

     Computing kpt #:     7  of    19 on this pool
     total cpu time spent up to now is        1.1 secs

     Computing kpt #:     8  of    19 on this pool
     total cpu time spent up to now is        1.2 secs

     Computing kpt #:     9  of    19 on this pool
     total cpu time spent up to now is        1.3 secs

     Computing kpt #:    10  of    19 on this pool
     total cpu time spent up to now is        1.3 secs

     Computing kpt #:    11  of    19 on this pool
     total cpu time spent up to now is        1.4 secs

     Computing kpt #:    12  of    19 on this pool
     total cpu time spent up to now is        1.5 secs

     Computing kpt #:    13  of    19 on this pool
     total cpu time spent up to now is        1.6 secs

     Computing kpt #:    14  of    19 on this pool
     total cpu time spent up to now is        1.7 secs

     Computing kpt #:    15  of    19 on this pool
     total cpu time spent up to now is        1.8 secs

     Computing kpt #:    16  of    19 on this pool
     total cpu time spent up to now is        1.8 secs

     Computing kpt #:    17  of    19 on this pool
     total cpu time spent up to now is        1.9 secs

     Computing kpt #:    18  of    19 on this pool
     total cpu time spent up to now is        2.0 secs

     Computing kpt #:    19  of    19 on this pool
     total cpu time spent up to now is        2.1 secs

     ethr =  2.00E-10,  avg # of iterations = 33.1

     total cpu time spent up to now is        2.1 secs

     End of band structure calculation

          k = 0.0000 0.0000 0.0000 (  2109 PWs)   bands (ev):

    -5.7002   6.2661   6.2661   6.2661   8.8091   8.8091   8.8091   9.6063
    13.9151  13.9151  14.2051  17.4690  17.4690  17.4690  21.6572  29.1574
    29.1574  29.1574  30.1732  30.1732

          k =-0.0909 0.0000 0.0000 (  2101 PWs)   bands (ev):

    -5.6640   6.0307   6.1183   6.1183   8.7210   9.0012   9.0012   9.8345
    13.6418  13.9550  14.3645  17.5315  17.5315  17.6589  21.9160  28.6685
    28.6685  29.2033  29.7593  29.9202

          k =-0.1818 0.0000 0.0000 (  2117 PWs)   bands (ev):

    -5.5556   5.4615   5.7697   5.7697   8.4875   9.4820   9.4820  10.3361
    13.0576  14.0747  14.8110  17.7183  17.7183  18.0724  22.6542  27.6311
    27.6311  28.7841  29.3271  29.3451

          k =-0.2727 0.0000 0.0000 (  2117 PWs)   bands (ev):

    -5.3755   4.7420   5.3526   5.3526   8.1727  10.1172  10.1172  10.6750
    12.6754  14.2741  15.4766  18.0263  18.0263  18.5439  23.7600  26.4448
    26.4448  27.5904  28.5802  29.5972

          k =-0.3636 0.0000 0.0000 (  2101 PWs)   bands (ev):

    -5.1246   3.9610   4.9365   4.9365   7.8352  10.3663  10.8347  10.8347
    13.0249  14.5531  16.2952  18.4461  18.4461  19.0511  25.0828  25.2507
    25.2507  26.3362  27.7648  29.9921

          k =-0.4545 0.0000 0.0000 (  2105 PWs)   bands (ev):

    -4.8039   3.1543   4.5521   4.5521   7.5152   9.7076  11.6008  11.6008
    13.8297  14.9114  17.2108  18.9503  18.9503  19.6203  24.1245  24.1245
    25.0871  26.4604  26.9338  30.5982

          k =-0.5455 0.0000 0.0000 (  2113 PWs)   bands (ev):

    -4.4154   2.3382   4.2144   4.2144   7.2385   9.0228  12.3987  12.3987
    14.7703  15.3486  18.1666  19.4543  19.4543  20.2784  23.1710  23.1710
    23.8729  26.1406  27.7154  31.5224

          k =-0.6364 0.0000 0.0000 (  2117 PWs)   bands (ev):

    -3.9610   1.5229   3.9313   3.9313   7.0215   8.4051  13.2199  13.2199
    15.7472  15.8645  19.0783  19.7028  19.7028  21.0441  22.6533  22.6533
    22.7094  25.4639  28.7190  31.0922

          k =-0.7273 0.0000 0.0000 (  2112 PWs)   bands (ev):

    -3.4437   0.7173   3.7076   3.7076   6.8756   7.8829  14.0597  14.0597
    16.4585  16.7174  19.3605  19.3605  19.7926  21.6056  21.9267  22.9068
    22.9068  25.0433  29.4886  29.8963

          k =-0.8182 0.0000 0.0000 (  2112 PWs)   bands (ev):

    -2.8670  -0.0699   3.5462   3.5462   6.8093   7.4651  14.9138  14.9138
    17.1299  17.6526  18.6095  18.6095  20.0866  20.5673  22.9218  23.7455
    23.7455  25.0557  28.6210  29.0919

          k =-0.9091 0.0000 0.0000 (  2120 PWs)   bands (ev):

    -2.2354  -0.8298   3.4487   3.4487   6.8295   7.1524  15.7633  15.7633
    17.7549  17.7549  17.8777  18.5253  19.5981  19.8696  23.9962  24.8676
    24.8676  25.3644  27.6112  27.6112

          k =-1.0000 0.0000 0.0000 (  2100 PWs)   bands (ev):

    -1.5542  -1.5542   3.4161   3.4161   6.9421   6.9421  16.3570  16.3570
    17.1521  17.1521  18.7010  18.7010  19.2935  19.2935  25.0088  25.0088
    25.9677  25.9677  26.3968  26.3968

          k =-1.0000 0.1000-0.0000 (  2120 PWs)   bands (ev):

    -1.5397  -1.5397   3.2902   3.2902   7.1781   7.1781  15.8916  15.8916
    16.8806  16.8806  18.9177  18.9177  19.8542  19.8542  24.5362  24.5362
    25.8247  25.8247  26.8708  26.8708

          k =-1.0000 0.2000 0.0000 (  2130 PWs)   bands (ev):

    -1.5009  -1.5009   3.0032   3.0032   7.7979   7.7979  14.7216  14.7216
    16.7935  16.7935  19.0332  19.0332  21.1054  21.1054  23.8529  23.8529
    25.4646  25.4646  27.6170  27.6170

          k =-1.0000 0.3000 0.0000 (  2142 PWs)   bands (ev):

    -1.4502  -1.4502   2.7026   2.7026   8.6604   8.6604  13.4238  13.4238
    16.7857  16.7857  19.1298  19.1298  22.4014  22.4014  23.3730  23.3730
    25.1424  25.1424  27.7352  27.7352

          k =-1.0000 0.4000 0.0000 (  2154 PWs)   bands (ev):

    -1.4069  -1.4069   2.4867   2.4867   9.6660   9.6660  12.1592  12.1592
    16.7899  16.7899  19.2102  19.2102  22.7385  22.7385  24.0396  24.0396
    24.9371  24.9371  26.8269  26.8269

          k =-1.0000 0.5000 0.0000 (  2148 PWs)   bands (ev):

    -1.3897  -1.3897   2.4089   2.4089  10.5006  10.5006  11.2390  11.2390
    16.7924  16.7924  19.2428  19.2428  22.6458  22.6458  24.8118  24.8118
    25.0749  25.0749  25.8968  25.8968

          k =-0.9167 0.5833 0.0000 (  2143 PWs)   bands (ev):

    -1.7100  -1.1089   2.1629   2.8611   9.2324  10.5102  11.9299  12.0590
    15.9818  16.9276  18.9972  20.0739  22.0417  22.9503  23.9592  24.2302
    24.9351  25.6572  25.8838  27.3987

          k =-0.8333 0.6667 0.0000 (  2132 PWs)   bands (ev):

    -1.9031  -0.9922   2.0105   3.4923   7.9857  10.4033  12.8937  13.2796
    15.0362  15.9066  19.8591  20.9823  21.6539  22.5655  22.6153  23.5983
    25.5454  25.7430  26.9899  28.2247

          k =-0.7500 0.7500 0.0000 (  2129 PWs)   bands (ev):

    -1.9676  -0.9640   1.9590   3.8433   7.4365  10.3615  13.7045  14.2352
    14.4810  14.7047  20.9882  21.0389  21.6540  21.8653  22.1273  23.2413
    25.7541  26.1276  27.6787  27.8429

          k =-0.6875 0.6875 0.0000 (  2121 PWs)   bands (ev):

    -2.3016  -0.6336   1.8423   4.0718   7.7015  11.6275  12.9534  13.5037
    13.8733  14.0647  20.8081  21.4191  21.6535  21.8070  22.5218  24.2147
    24.2642  26.1710  28.4268  28.4662

          k =-0.6250 0.6250 0.0000 (  2131 PWs)   bands (ev):

    -2.7225  -0.2315   1.9187   4.3380   8.0094  12.2531  12.4161  13.3066
    13.3699  13.4982  20.1185  20.7154  22.0764  22.2292  22.8854  23.3409
    24.7713  26.2082  28.3299  29.3299

          k =-0.5625 0.5625 0.0000 (  2125 PWs)   bands (ev):

    -3.1869   0.2412   2.1529   4.6321   8.3453  11.6106  11.9394  12.8034
    13.0214  14.5816  19.4514  20.1059  20.8808  22.7561  23.0829  24.0438
    24.1160  26.7662  28.9368  29.1839

          k =-0.5000 0.5000 0.0000 (  2119 PWs)   bands (ev):

    -3.6557   0.7830   2.5087   4.9411   8.6844  11.0300  11.3671  12.3880
    12.6505  15.8671  18.8327  19.3916  19.6816  22.8832  23.1786  23.6397
    24.8623  27.3424  27.8770  30.0334

          k =-0.4375 0.4375 0.0000 (  2115 PWs)   bands (ev):

    -4.1018   1.3917   2.9573   5.2482   8.9876  10.5139  10.8399  12.0899
    12.4030  16.7823  17.8324  18.3987  19.6949  21.7133  23.3095  24.2100
    25.5970  26.8267  27.8413  29.5083

          k =-0.3750 0.3750 0.0000 (  2121 PWs)   bands (ev):

    -4.5077   2.0644   3.4759   5.5342   9.2040  10.0642  10.3698  11.9344
    12.2961  16.4588  16.9393  17.9481  20.0199  21.1348  22.8312  24.7183
    26.3331  26.4681  28.1368  28.3003

          k =-0.3125 0.3125 0.0000 (  2109 PWs)   bands (ev):

    -4.8627   2.7963   4.0433   5.7809   9.2984   9.6821   9.9583  11.8935
    12.3430  15.2058  16.5815  17.6158  19.3108  21.8320  22.2898  24.9172
    26.7383  27.0785  27.1972  28.7265

          k =-0.2500 0.2500 0.0000 (  2111 PWs)   bands (ev):

    -5.1598   3.5794   4.6348   5.9755   9.2850   9.3685   9.6034  11.7891
    12.5460  14.2396  16.0098  17.3975  18.5782  20.6704  23.8907  24.3672
    27.1485  27.2844  27.8321  29.1095

          k =-0.1875 0.1875 0.0000 (  2103 PWs)   bands (ev):

    -5.3944   4.3982   5.2169   6.1145   9.1241   9.2092   9.3021  11.3148
    12.8880  13.8021  15.3642  17.3026  18.0522  19.5344  23.4260  25.5807
    27.6552  27.9155  28.5834  29.4352

          k =-0.1250 0.1250 0.0000 (  2107 PWs)   bands (ev):

    -5.5637   5.2168   5.7383   6.2033   8.9492   9.0550   9.1017  10.5361
    13.3194  13.7876  14.7722  17.3260  17.7152  18.5264  22.5375  27.2324
    28.2978  28.5203  29.3010  29.6989

          k =-0.0625 0.0625 0.0000 (  2097 PWs)   bands (ev):

    -5.6660   5.9342   6.1209   6.2511   8.8441   8.8775   8.9454   9.8523
    13.7298  13.8747  14.3556  17.4167  17.5287  17.7695  21.8966  28.6108
    28.8866  28.9802  29.9030  29.9451

          k = 0.0000 0.0000 0.0000 (  2109 PWs)   bands (ev):

    -5.7002   6.2661   6.2661   6.2661   8.8091   8.8091   8.8091   9.6063
    13.9151  13.9151  14.2051  17.4690  17.4690  17.4690  21.6572  29.1574
    29.1574  29.1574  30.1732  30.1732

          k =-0.0500 0.0500 0.0500 (  2097 PWs)   bands (ev):

    -5.6674   5.9070   6.2108   6.2108   8.8684   8.8901   8.8901   9.8487
    13.8061  13.8061  14.3495  17.3388  17.6833  17.6833  21.8857  28.7979
    28.8290  28.8290  29.9702  29.9702

          k =-0.1000 0.1000 0.1000 (  2106 PWs)   bands (ev):

    -5.5693   5.1180   6.0677   6.0677   8.8177   9.1012   9.1012  10.5330
    13.5627  13.5627  14.7435  17.0481  18.2494  18.2494  22.4877  27.8277
    27.8277  27.9982  29.8585  29.8585

          k =-0.1500 0.1500 0.1500 (  2112 PWs)   bands (ev):

    -5.4070   4.1965   5.8814   5.8814   8.6567   9.3685   9.3685  11.3989
    13.3358  13.3358  15.2228  16.8512  19.0369  19.0369  23.3052  26.5406
    26.5406  27.0705  29.8852  29.8852

          k =-0.2000 0.2000 0.2000 (  2100 PWs)   bands (ev):

    -5.1827   3.2539   5.6877   5.6877   8.4614   9.6069   9.6069  12.2976
    13.2526  13.2526  15.3905  17.1858  19.9418  19.9418  24.1110  25.2202
    25.2202  26.2667  29.9573  29.9573

          k =-0.2500 0.2500 0.2500 (  2106 PWs)   bands (ev):

    -4.9003   2.3352   5.5081   5.5081   8.2690   9.7463   9.7463  13.1651
    13.3999  13.3999  15.2300  18.0779  20.8259  20.8259  24.0387  24.0387
    24.1853  26.3178  30.0351  30.0351

          k =-0.3000 0.3000 0.3000 (  2121 PWs)   bands (ev):

    -4.5670   1.4668   5.3540   5.3540   8.0984   9.7708   9.7708  13.8006
    13.8006  13.8826  15.1462  19.1713  21.1851  21.1851  23.4687  23.5079
    23.5079  27.3251  30.0754  30.0754

          k =-0.3500 0.3500 0.3500 (  2108 PWs)   bands (ev):

    -4.1968   0.6729   5.2314   5.2314   7.9596   9.7204   9.7204  14.1412
    14.4160  14.4160  15.5539  20.1350  20.4694  20.4694  22.8491  24.1771
    24.1771  28.5920  30.0022  30.0022

          k =-0.4000 0.4000 0.4000 (  2117 PWs)   bands (ev):

    -3.8195  -0.0104   5.1428   5.1428   7.8579   9.6482   9.6482  14.0815
    15.1890  15.1890  16.3332  19.3890  19.3890  20.2755  23.1449  25.3291
    25.3291  29.0772  29.6744  29.6744

          k =-0.4500 0.4500 0.4500 (  2117 PWs)   bands (ev):

    -3.5019  -0.5129   5.0894   5.0894   7.7961   9.5917   9.5917  13.9991
    16.0602  16.0602  17.1406  18.3040  18.3040  19.6827  24.3266  26.5971
    26.5971  27.4699  28.9435  28.9435

          k =-0.5000 0.5000 0.5000 (  2120 PWs)   bands (ev):

    -3.3675  -0.7091   5.0715   5.0715   7.7754   9.5709   9.5709  13.9673
    16.7297  16.7297  17.5611  17.5611  17.5877  19.2667  25.5276  26.1637
    27.7890  27.7890  27.9168  27.9168

          k =-0.5714 0.4643 0.4643 (  2121 PWs)   bands (ev):

    -3.3340  -0.6915   4.7770   5.0103   8.0373   9.5266   9.6999  14.1103
    16.0383  16.4571  17.4599  17.8741  18.2693  19.5222  25.4844  26.0804
    27.4440  27.4686  28.1240  28.1261

          k =-0.6429 0.4286 0.4286 (  2111 PWs)   bands (ev):

    -3.2338  -0.6430   4.1323   4.8474   8.4245   9.6101  10.0657  14.3150
    15.2296  16.0126  17.3164  18.4369  19.1304  20.2108  25.2926  25.8308
    26.9742  27.2604  28.0459  28.0492

          k =-0.7143 0.3929 0.3929 (  2125 PWs)   bands (ev):

    -3.0683  -0.5781   3.4070   4.6276   8.3829  10.2180  10.6218  13.7762
    15.1312  15.5829  17.4599  19.0534  19.8246  21.2067  24.7921  25.6219
    26.3149  27.1041  27.6232  27.7891

          k =-0.7857 0.3571 0.3571 (  2121 PWs)   bands (ev):

    -2.8404  -0.5296   2.7337   4.3931   8.1208  11.1086  11.3229  12.9085
    15.1188  15.1999  18.1186  19.6763  20.3932  22.3384  24.1147  25.2972
    25.4034  26.5926  27.2983  27.8854

          k =-0.8571 0.3214 0.3214 (  2126 PWs)   bands (ev):

    -2.5566  -0.5579   2.2156   4.1732   7.8431  11.7743  12.1304  12.3724
    14.8785  14.9256  19.1851  20.2714  20.8451  23.2703  23.6476  24.0467
    24.8446  26.2266  27.2258  28.2135

          k =-0.9286 0.2857 0.2857 (  2129 PWs)   bands (ev):

    -2.2368  -0.7260   1.9501   3.9862   7.6082  11.1079  12.9930  13.2654
    14.6505  14.6622  20.4574  20.7972  21.1406  22.6826  22.7422  23.9639
    24.7356  26.1645  27.3789  28.6353

          k =-1.0000 0.2500 0.2500 (  2129 PWs)   bands (ev):

    -1.9676  -0.9640   1.9590   3.8433   7.4365  10.3615  13.7045  14.2352
    14.4810  14.7047  20.9882  21.0389  21.6540  21.8653  22.1273  23.2413
    25.7541  26.1276  27.6787  27.8429

          k =-1.0000 0.3125 0.1875 (  2122 PWs)   bands (ev):

    -1.9313  -0.9792   1.9880   3.6318   7.7589  10.3853  13.1414  13.5997
    14.7927  15.5891  20.1418  21.2014  21.5676  22.3137  22.4406  23.4533
    25.7481  25.7528  27.2790  28.0380

          k =-1.0000 0.3750 0.1250 (  2130 PWs)   bands (ev):

    -1.8226  -1.0351   2.0744   3.1747   8.5567  10.4520  12.4004  12.6546
    15.5191  16.4938  19.3497  20.5280  21.8254  22.7935  23.2782  23.9315
    25.1512  25.7252  26.4027  28.1145

          k =-1.0000 0.4375 0.0625 (  2149 PWs)   bands (ev):

    -1.6418  -1.1608   2.2160   2.7207   9.5932  10.5364  11.7121  11.7778
    16.2017  17.0306  18.9319  19.8527  22.1722  22.9628  24.2913  24.3440
    24.9531  25.4890  25.7784  26.9842

          k =-1.0000 0.5000 0.0000 (  2148 PWs)   bands (ev):

    -1.3897  -1.3897   2.4089   2.4089  10.5006  10.5006  11.2390  11.2390
    16.7924  16.7924  19.2428  19.2428  22.6458  22.6458  24.8118  24.8118
    25.0749  25.0749  25.8968  25.8968

          k =-0.9375 0.5000 0.0625 (  2142 PWs)   bands (ev):

    -1.7980  -1.0029   2.1751   2.7672  10.1237  10.4585  11.3121  11.7249
    15.8383  17.2828  18.6643  20.2022  21.7551  23.1981  24.1121  24.5885
    24.9896  25.7636  26.0521  26.4468

          k =-0.8750 0.5000 0.1250 (  2134 PWs)   bands (ev):

    -2.1871  -0.7021   2.1368   3.1970   9.7734  10.0607  11.8768  12.3257
    14.6284  17.3849  18.3356  20.3974  21.6947  23.4406  23.4887  24.2193
    24.5553  26.3313  26.8273  27.3671

          k =-0.8125 0.5000 0.1875 (  2124 PWs)   bands (ev):

    -2.5346  -0.5458   2.3538   3.6569   9.5144   9.6667  12.5665  12.9739
    13.3633  17.2177  18.1032  19.3913  22.4794  22.8464  23.1910  24.2180
    24.9125  26.7859  27.0274  27.9441

          k =-0.7500 0.5000 0.2500 (  2132 PWs)   bands (ev):

    -2.8285  -0.5248   2.8128   4.1072   9.3046   9.3657  12.1427  13.3386
    13.6306  16.7864  17.9171  18.6192  21.7399  21.7610  24.2950  24.6226
    25.6357  26.9773  27.0868  28.1210

          k =-0.6875 0.5000 0.3125 (  2122 PWs)   bands (ev):

    -3.0620  -0.5755   3.4367   4.5062   8.9501   9.3344  11.0458  14.1818
    14.1940  16.2338  17.7685  18.1782  20.5803  20.9396  25.0259  25.1489
    26.6937  27.0323  27.0921  28.3326

          k =-0.6250 0.5000 0.3750 (  2122 PWs)   bands (ev):

    -3.2311  -0.6417   4.1340   4.8150   8.5362   9.4045  10.1929  14.3611
    15.0870  16.0664  17.6589  17.9187  19.4292  20.1538  25.3273  25.7463
    27.1560  27.1781  27.6682  28.3715

          k =-0.5625 0.5000 0.4375 (  2116 PWs)   bands (ev):

    -3.3333  -0.6912   4.7731   5.0070   8.0439   9.5157   9.7114  14.1132
    16.0308  16.4390  17.5915  17.7075  18.3312  19.5245  25.4842  26.0772
    27.4370  27.4743  28.0579  28.1897

          k =-0.5000 0.5000 0.5000 (  2120 PWs)   bands (ev):

    -3.3675  -0.7091   5.0715   5.0715   7.7754   9.5709   9.5709  13.9673
    16.7297  16.7297  17.5611  17.5611  17.5877  19.2667  25.5276  26.1637
    27.7890  27.7890  27.9168  27.9168

          k =-0.5312 0.5312 0.4375 (  2121 PWs)   bands (ev):

    -3.3418  -0.6956   4.8406   5.0243   7.9833   9.5341   9.6700  14.0793
    16.1530  16.5089  17.4814  17.8129  18.1555  19.4643  25.4952  26.1010
    27.4972  27.5103  28.1072  28.1075

          k =-0.5625 0.5625 0.3750 (  2115 PWs)   bands (ev):

    -3.2651  -0.6574   4.3082   4.8953   8.3576   9.5476   9.9545  14.2981
    15.3896  16.1247  17.3386  18.2884  18.9298  20.0037  25.3649  25.8998
    27.1014  27.2915  28.1016  28.1085

          k =-0.5937 0.5937 0.3125 (  2119 PWs)   bands (ev):

    -3.1379  -0.6028   3.6785   4.7138   8.4447   9.9356  10.3940  14.0673
    15.1018  15.7395  17.3515  18.8196  19.5821  20.8086  25.0143  25.6877
    26.5996  27.1936  27.7946  27.8686

          k =-0.6250 0.6250 0.2500 (  2121 PWs)   bands (ev):

    -2.9619  -0.5487   3.0575   4.5101   8.2607  10.6484  10.9567  13.3440
    15.1528  15.3846  17.7249  19.3662  20.1222  21.7646  24.4613  25.5328
    25.8491  26.8760  27.4289  27.7898

          k =-0.6562 0.6562 0.1875 (  2127 PWs)   bands (ev):

    -2.7399  -0.5271   2.5155   4.3078   8.0139  11.4522  11.6153  12.6013
    15.0611  15.0713  18.4824  19.9046  20.5781  22.7681  23.8578  24.8439
    25.2476  26.4081  27.2431  27.9928

          k =-0.6875 0.6875 0.1250 (  2136 PWs)   bands (ev):

    -2.4786  -0.5857   2.1226   4.1228   7.7793  11.6601  12.3440  12.5346
    14.8103  14.8628  19.4917  20.4113  20.9349  23.1649  23.7203  23.8669
    24.6480  26.1938  27.2436  28.3124

          k =-0.7187 0.7187 0.0625 (  2131 PWs)   bands (ev):

    -2.1969  -0.7563   1.9371   3.9657   7.5831  11.0121  13.0989  13.3955
    14.6284  14.6335  20.6145  20.8543  21.1711  22.5823  22.6000  23.8616
    24.8701  26.1634  27.4132  28.6920

          k =-0.7500 0.7500 0.0000 (  2129 PWs)   bands (ev):

    -1.9676  -0.9640   1.9590   3.8433   7.4365  10.3615  13.7045  14.2352
    14.4810  14.7047  20.9882  21.0389  21.6540  21.8653  22.1273  23.2413
    25.7541  26.1276  27.6787  27.8429

          k =-1.0000 0.2500 0.2500 (  2129 PWs)   bands (ev):

    -1.9676  -0.9640   1.9590   3.8433   7.4365  10.3615  13.7045  14.2352
    14.4810  14.7047  20.9882  21.0389  21.6540  21.8653  22.1273  23.2413
    25.7541  26.1276  27.6787  27.8429

          k =-1.0000 0.1875 0.1875 (  2135 PWs)   bands (ev):

    -1.7453  -1.2217   2.2747   3.6595   7.2235   9.1540  14.4933  15.0547
    15.1022  15.3994  20.3846  20.4767  20.7521  21.8278  22.6577  23.2004
    26.0026  27.0386  27.1056  27.1183

          k =-1.0000 0.1250 0.1250 (  2123 PWs)   bands (ev):

    -1.6233  -1.4063   2.7345   3.5253   7.0681   8.0857  15.2903  15.6924
    15.9111  16.1198  19.7015  19.8577  19.9281  20.7513  23.5585  23.9876
    25.9040  26.4466  26.7069  27.5626

          k =-1.0000 0.0625 0.0625 (  2125 PWs)   bands (ev):

    -1.5689  -1.5172   3.1995   3.4436   6.9737   7.2719  16.0081  16.1633
    16.7227  16.7955  19.0495  19.0733  19.4798  19.7785  24.4595  24.7044
    25.8970  26.0876  26.4735  26.9174

          k =-1.0000 0.0000 0.0000 (  2100 PWs)   bands (ev):

    -1.5542  -1.5542   3.4161   3.4161   6.9421   6.9421  16.3570  16.3570
    17.1521  17.1521  18.7010  18.7010  19.2935  19.2935  25.0088  25.0088
    25.9677  25.9677  26.3968  26.3968

     Writing all to output data dir /scratch/elinscott/materials_cloud_archive/si/postproc/TMP/kc_bands.save/
 
     init_run     :      0.03s CPU      0.04s WALL (       1 calls)
     electrons    :      1.49s CPU      1.54s WALL (       1 calls)

     Called by init_run:
     wfcinit      :      0.00s CPU      0.00s WALL (       1 calls)
     wfcinit:wfcr :      0.04s CPU      0.05s WALL (      19 calls)
     potinit      :      0.01s CPU      0.01s WALL (       1 calls)
     hinit0       :      0.01s CPU      0.01s WALL (       1 calls)

     Called by electrons:
     c_bands      :      1.49s CPU      1.54s WALL (       1 calls)
     v_of_rho     :      0.00s CPU      0.00s WALL (       1 calls)
     v_h          :      0.00s CPU      0.00s WALL (       1 calls)
     v_xc         :      0.00s CPU      0.00s WALL (       1 calls)

     Called by c_bands:
     init_us_2    :      0.00s CPU      0.00s WALL (      19 calls)
     init_us_2:cp :      0.00s CPU      0.00s WALL (      19 calls)
     cegterg      :      1.37s CPU      1.42s WALL (      45 calls)

     Called by sum_band:

     Called by *egterg:
     cdiaghg      :      0.29s CPU      0.30s WALL (     707 calls)
     cegterg:over :      0.08s CPU      0.08s WALL (     688 calls)
     cegterg:upda :      0.03s CPU      0.03s WALL (     688 calls)
     cegterg:last :      0.05s CPU      0.05s WALL (     446 calls)
     h_psi        :      0.93s CPU      0.96s WALL (     752 calls)
     g_psi        :      0.01s CPU      0.01s WALL (     688 calls)

     Called by h_psi:
     h_psi:calbec :      0.03s CPU      0.03s WALL (     752 calls)
     vloc_psi     :      0.88s CPU      0.91s WALL (     752 calls)
     add_vuspsi   :      0.02s CPU      0.02s WALL (     752 calls)

     General routines
     calbec       :      0.03s CPU      0.03s WALL (     752 calls)
     fft          :      0.00s CPU      0.01s WALL (      10 calls)
     fftw         :      0.74s CPU      0.76s WALL (   18554 calls)
     davcio       :      0.00s CPU      0.00s WALL (      38 calls)
 
     Parallel routines
 
     PWSCF        :      2.03s CPU      2.13s WALL

 
   This run was terminated on:  15:53:14   7Feb2023            

=------------------------------------------------------------------------------=
   JOB DONE.
=------------------------------------------------------------------------------=
