
     Program PWSCF v.7.1 starts on  7Feb2023 at 15:52:41 

     This program is part of the open-source Quantum ESPRESSO suite
     for quantum simulation of materials; please cite
         "P. Giannozzi et al., J. Phys.:Condens. Matter 21 395502 (2009);
         "P. Giannozzi et al., J. Phys.:Condens. Matter 29 465901 (2017);
         "P. Giannozzi et al., J. Chem. Phys. 152 154105 (2020);
          URL http://www.quantum-espresso.org", 
     in publications or presentations arising from this work. More details at
     http://www.quantum-espresso.org/quote

     Parallel version (MPI), running on    16 processors

     MPI processes distributed on     1 nodes
     66078 MiB available memory on the printing compute node when the environment starts
 
     Reading input from nscf.pwi
Warning: card &IONS ignored
Warning: card / ignored
Warning: card &CELL ignored
Warning: card / ignored

     Current dimensions of program PWSCF are:
     Max number of different atomic species (ntypx) = 10
     Max number of k-points (npk) =  40000
     Max angular momentum in pseudopotentials (lmaxx) =  4

     Atomic positions and unit cell read from directory:
     /scratch/elinscott/materials_cloud_archive/si/postproc/TMP/kc.save/
     Atomic positions from file used, from input discarded
 
 
     K-points division:     npool     =       4
     R & G space division:  proc/nbgrp/npool/nimage =       4
     Subspace diagonalization in iterative solution of the eigenvalue problem:
     a serial algorithm will be used

 
     Parallelization info
     --------------------
     sticks:   dense  smooth     PW     G-vecs:    dense   smooth      PW
     Min         214     214     66                 4221     4221     722
     Max         215     215     67                 4224     4224     724
     Sum         859     859    265                16889    16889    2891
 
     Using Slab Decomposition
 


     bravais-lattice index     =            2
     lattice parameter (alat)  =      10.2622  a.u.
     unit-cell volume          =     270.1851 (a.u.)^3
     number of atoms/cell      =            2
     number of atomic types    =            1
     number of electrons       =         8.00
     number of Kohn-Sham states=           20
     kinetic-energy cutoff     =      60.0000  Ry
     charge density cutoff     =     240.0000  Ry
     Exchange-correlation= PBE
                           (   1   4   3   4   0   0   0)

     celldm(1)=  10.262200  celldm(2)=   0.000000  celldm(3)=   0.000000
     celldm(4)=   0.000000  celldm(5)=   0.000000  celldm(6)=   0.000000

     crystal axes: (cart. coord. in units of alat)
               a(1) = (  -0.500000   0.000000   0.500000 )  
               a(2) = (   0.000000   0.500000   0.500000 )  
               a(3) = (  -0.500000   0.500000   0.000000 )  

     reciprocal axes: (cart. coord. in units 2 pi/alat)
               b(1) = ( -1.000000 -1.000000  1.000000 )  
               b(2) = (  1.000000  1.000000  1.000000 )  
               b(3) = ( -1.000000  1.000000 -1.000000 )  


     PseudoPot. # 1 for Si read from file:
     /home/elinscott/code/koopmans/src/koopmans/pseudopotentials/sg15_v1.2/pbe/Si_ONCV_PBE-1.2.upf
     MD5 check sum: 7f029a58b69e3aa87b46a36c608bf45e
     Pseudo is Norm-conserving, Zval =  4.0
     Generated using ONCVPSP code by D. R. Hamann
     Using radial grid of  602 points,  4 beta functions with: 
                l(1) =   0
                l(2) =   0
                l(3) =   1
                l(4) =   1

     atomic species   valence    mass     pseudopotential
        Si             4.00    28.08500     Si( 1.00)

     No symmetry found


                                    s                        frac. trans.

      isym =  1     identity                                     

 cryst.   s( 1) = (     1          0          0      )
                  (     0          1          0      )
                  (     0          0          1      )

 cart.    s( 1) = (  1.0000000  0.0000000  0.0000000 )
                  (  0.0000000  1.0000000  0.0000000 )
                  (  0.0000000  0.0000000  1.0000000 )


     point group C_1 (1)    
     there are  1 classes
     the character table:

       E    
A      1.00

     the symmetry operations in each class and the name of the first element:

     E        1
          identity                                               

   Cartesian axes

     site n.     atom                  positions (alat units)
         1           Si  tau(   1) = (   0.0000000   0.0000000   0.0000000  )
         2           Si  tau(   2) = (  -0.2500000   0.2500000   0.2500000  )

   Crystallographic axes

     site n.     atom                  positions (cryst. coord.)
         1           Si  tau(   1) = (  0.0000000  0.0000000  0.0000000  )
         2           Si  tau(   2) = (  0.2500000  0.2500000  0.2500000  )

     number of k points=   512
                       cart. coord. in units 2pi/alat
        k(    1) = (   0.0000000   0.0000000   0.0000000), wk =   0.0039062
        k(    2) = (  -0.1250000   0.1250000  -0.1250000), wk =   0.0039062
        k(    3) = (  -0.2500000   0.2500000  -0.2500000), wk =   0.0039062
        k(    4) = (  -0.3750000   0.3750000  -0.3750000), wk =   0.0039062
        k(    5) = (   0.5000000  -0.5000000   0.5000000), wk =   0.0039062
        k(    6) = (   0.3750000  -0.3750000   0.3750000), wk =   0.0039062
        k(    7) = (   0.2500000  -0.2500000   0.2500000), wk =   0.0039062
        k(    8) = (   0.1250000  -0.1250000   0.1250000), wk =   0.0039062
        k(    9) = (   0.1250000   0.1250000   0.1250000), wk =   0.0039062
        k(   10) = (   0.0000000   0.2500000   0.0000000), wk =   0.0039062
        k(   11) = (  -0.1250000   0.3750000  -0.1250000), wk =   0.0039062
        k(   12) = (  -0.2500000   0.5000000  -0.2500000), wk =   0.0039062
        k(   13) = (   0.6250000  -0.3750000   0.6250000), wk =   0.0039062
        k(   14) = (   0.5000000  -0.2500000   0.5000000), wk =   0.0039062
        k(   15) = (   0.3750000  -0.1250000   0.3750000), wk =   0.0039062
        k(   16) = (   0.2500000   0.0000000   0.2500000), wk =   0.0039062
        k(   17) = (   0.2500000   0.2500000   0.2500000), wk =   0.0039062
        k(   18) = (   0.1250000   0.3750000   0.1250000), wk =   0.0039062
        k(   19) = (   0.0000000   0.5000000   0.0000000), wk =   0.0039062
        k(   20) = (  -0.1250000   0.6250000  -0.1250000), wk =   0.0039062
        k(   21) = (   0.7500000  -0.2500000   0.7500000), wk =   0.0039062
        k(   22) = (   0.6250000  -0.1250000   0.6250000), wk =   0.0039062
        k(   23) = (   0.5000000   0.0000000   0.5000000), wk =   0.0039062
        k(   24) = (   0.3750000   0.1250000   0.3750000), wk =   0.0039062
        k(   25) = (   0.3750000   0.3750000   0.3750000), wk =   0.0039062
        k(   26) = (   0.2500000   0.5000000   0.2500000), wk =   0.0039062
        k(   27) = (   0.1250000   0.6250000   0.1250000), wk =   0.0039062
        k(   28) = (   0.0000000   0.7500000   0.0000000), wk =   0.0039062
        k(   29) = (   0.8750000  -0.1250000   0.8750000), wk =   0.0039062
        k(   30) = (   0.7500000   0.0000000   0.7500000), wk =   0.0039062
        k(   31) = (   0.6250000   0.1250000   0.6250000), wk =   0.0039062
        k(   32) = (   0.5000000   0.2500000   0.5000000), wk =   0.0039062
        k(   33) = (  -0.5000000  -0.5000000  -0.5000000), wk =   0.0039062
        k(   34) = (  -0.6250000  -0.3750000  -0.6250000), wk =   0.0039062
        k(   35) = (  -0.7500000  -0.2500000  -0.7500000), wk =   0.0039062
        k(   36) = (  -0.8750000  -0.1250000  -0.8750000), wk =   0.0039062
        k(   37) = (   0.0000000  -1.0000000   0.0000000), wk =   0.0039062
        k(   38) = (  -0.1250000  -0.8750000  -0.1250000), wk =   0.0039062
        k(   39) = (  -0.2500000  -0.7500000  -0.2500000), wk =   0.0039062
        k(   40) = (  -0.3750000  -0.6250000  -0.3750000), wk =   0.0039062
        k(   41) = (  -0.3750000  -0.3750000  -0.3750000), wk =   0.0039062
        k(   42) = (  -0.5000000  -0.2500000  -0.5000000), wk =   0.0039062
        k(   43) = (  -0.6250000  -0.1250000  -0.6250000), wk =   0.0039062
        k(   44) = (  -0.7500000   0.0000000  -0.7500000), wk =   0.0039062
        k(   45) = (   0.1250000  -0.8750000   0.1250000), wk =   0.0039062
        k(   46) = (   0.0000000  -0.7500000   0.0000000), wk =   0.0039062
        k(   47) = (  -0.1250000  -0.6250000  -0.1250000), wk =   0.0039062
        k(   48) = (  -0.2500000  -0.5000000  -0.2500000), wk =   0.0039062
        k(   49) = (  -0.2500000  -0.2500000  -0.2500000), wk =   0.0039062
        k(   50) = (  -0.3750000  -0.1250000  -0.3750000), wk =   0.0039062
        k(   51) = (  -0.5000000   0.0000000  -0.5000000), wk =   0.0039062
        k(   52) = (  -0.6250000   0.1250000  -0.6250000), wk =   0.0039062
        k(   53) = (   0.2500000  -0.7500000   0.2500000), wk =   0.0039062
        k(   54) = (   0.1250000  -0.6250000   0.1250000), wk =   0.0039062
        k(   55) = (   0.0000000  -0.5000000   0.0000000), wk =   0.0039062
        k(   56) = (  -0.1250000  -0.3750000  -0.1250000), wk =   0.0039062
        k(   57) = (  -0.1250000  -0.1250000  -0.1250000), wk =   0.0039062
        k(   58) = (  -0.2500000   0.0000000  -0.2500000), wk =   0.0039062
        k(   59) = (  -0.3750000   0.1250000  -0.3750000), wk =   0.0039062
        k(   60) = (  -0.5000000   0.2500000  -0.5000000), wk =   0.0039062
        k(   61) = (   0.3750000  -0.6250000   0.3750000), wk =   0.0039062
        k(   62) = (   0.2500000  -0.5000000   0.2500000), wk =   0.0039062
        k(   63) = (   0.1250000  -0.3750000   0.1250000), wk =   0.0039062
        k(   64) = (   0.0000000  -0.2500000   0.0000000), wk =   0.0039062
        k(   65) = (  -0.1250000  -0.1250000   0.1250000), wk =   0.0039062
        k(   66) = (  -0.2500000   0.0000000   0.0000000), wk =   0.0039062
        k(   67) = (  -0.3750000   0.1250000  -0.1250000), wk =   0.0039062
        k(   68) = (  -0.5000000   0.2500000  -0.2500000), wk =   0.0039062
        k(   69) = (   0.3750000  -0.6250000   0.6250000), wk =   0.0039062
        k(   70) = (   0.2500000  -0.5000000   0.5000000), wk =   0.0039062
        k(   71) = (   0.1250000  -0.3750000   0.3750000), wk =   0.0039062
        k(   72) = (   0.0000000  -0.2500000   0.2500000), wk =   0.0039062
        k(   73) = (   0.0000000   0.0000000   0.2500000), wk =   0.0039062
        k(   74) = (  -0.1250000   0.1250000   0.1250000), wk =   0.0039062
        k(   75) = (  -0.2500000   0.2500000   0.0000000), wk =   0.0039062
        k(   76) = (  -0.3750000   0.3750000  -0.1250000), wk =   0.0039062
        k(   77) = (   0.5000000  -0.5000000   0.7500000), wk =   0.0039062
        k(   78) = (   0.3750000  -0.3750000   0.6250000), wk =   0.0039062
        k(   79) = (   0.2500000  -0.2500000   0.5000000), wk =   0.0039062
        k(   80) = (   0.1250000  -0.1250000   0.3750000), wk =   0.0039062
        k(   81) = (   0.1250000   0.1250000   0.3750000), wk =   0.0039062
        k(   82) = (   0.0000000   0.2500000   0.2500000), wk =   0.0039062
        k(   83) = (  -0.1250000   0.3750000   0.1250000), wk =   0.0039062
        k(   84) = (  -0.2500000   0.5000000   0.0000000), wk =   0.0039062
        k(   85) = (   0.6250000  -0.3750000   0.8750000), wk =   0.0039062
        k(   86) = (   0.5000000  -0.2500000   0.7500000), wk =   0.0039062
        k(   87) = (   0.3750000  -0.1250000   0.6250000), wk =   0.0039062
        k(   88) = (   0.2500000   0.0000000   0.5000000), wk =   0.0039062
        k(   89) = (   0.2500000   0.2500000   0.5000000), wk =   0.0039062
        k(   90) = (   0.1250000   0.3750000   0.3750000), wk =   0.0039062
        k(   91) = (   0.0000000   0.5000000   0.2500000), wk =   0.0039062
        k(   92) = (  -0.1250000   0.6250000   0.1250000), wk =   0.0039062
        k(   93) = (   0.7500000  -0.2500000   1.0000000), wk =   0.0039062
        k(   94) = (   0.6250000  -0.1250000   0.8750000), wk =   0.0039062
        k(   95) = (   0.5000000   0.0000000   0.7500000), wk =   0.0039062
        k(   96) = (   0.3750000   0.1250000   0.6250000), wk =   0.0039062
        k(   97) = (  -0.6250000  -0.6250000  -0.3750000), wk =   0.0039062
        k(   98) = (  -0.7500000  -0.5000000  -0.5000000), wk =   0.0039062
        k(   99) = (  -0.8750000  -0.3750000  -0.6250000), wk =   0.0039062
        k(  100) = (  -1.0000000  -0.2500000  -0.7500000), wk =   0.0039062
        k(  101) = (  -0.1250000  -1.1250000   0.1250000), wk =   0.0039062
        k(  102) = (  -0.2500000  -1.0000000   0.0000000), wk =   0.0039062
        k(  103) = (  -0.3750000  -0.8750000  -0.1250000), wk =   0.0039062
        k(  104) = (  -0.5000000  -0.7500000  -0.2500000), wk =   0.0039062
        k(  105) = (  -0.5000000  -0.5000000  -0.2500000), wk =   0.0039062
        k(  106) = (  -0.6250000  -0.3750000  -0.3750000), wk =   0.0039062
        k(  107) = (  -0.7500000  -0.2500000  -0.5000000), wk =   0.0039062
        k(  108) = (  -0.8750000  -0.1250000  -0.6250000), wk =   0.0039062
        k(  109) = (   0.0000000  -1.0000000   0.2500000), wk =   0.0039062
        k(  110) = (  -0.1250000  -0.8750000   0.1250000), wk =   0.0039062
        k(  111) = (  -0.2500000  -0.7500000   0.0000000), wk =   0.0039062
        k(  112) = (  -0.3750000  -0.6250000  -0.1250000), wk =   0.0039062
        k(  113) = (  -0.3750000  -0.3750000  -0.1250000), wk =   0.0039062
        k(  114) = (  -0.5000000  -0.2500000  -0.2500000), wk =   0.0039062
        k(  115) = (  -0.6250000  -0.1250000  -0.3750000), wk =   0.0039062
        k(  116) = (  -0.7500000   0.0000000  -0.5000000), wk =   0.0039062
        k(  117) = (   0.1250000  -0.8750000   0.3750000), wk =   0.0039062
        k(  118) = (   0.0000000  -0.7500000   0.2500000), wk =   0.0039062
        k(  119) = (  -0.1250000  -0.6250000   0.1250000), wk =   0.0039062
        k(  120) = (  -0.2500000  -0.5000000   0.0000000), wk =   0.0039062
        k(  121) = (  -0.2500000  -0.2500000   0.0000000), wk =   0.0039062
        k(  122) = (  -0.3750000  -0.1250000  -0.1250000), wk =   0.0039062
        k(  123) = (  -0.5000000   0.0000000  -0.2500000), wk =   0.0039062
        k(  124) = (  -0.6250000   0.1250000  -0.3750000), wk =   0.0039062
        k(  125) = (   0.2500000  -0.7500000   0.5000000), wk =   0.0039062
        k(  126) = (   0.1250000  -0.6250000   0.3750000), wk =   0.0039062
        k(  127) = (   0.0000000  -0.5000000   0.2500000), wk =   0.0039062
        k(  128) = (  -0.1250000  -0.3750000   0.1250000), wk =   0.0039062
        k(  129) = (  -0.2500000  -0.2500000   0.2500000), wk =   0.0039062
        k(  130) = (  -0.3750000  -0.1250000   0.1250000), wk =   0.0039062
        k(  131) = (  -0.5000000   0.0000000   0.0000000), wk =   0.0039062
        k(  132) = (  -0.6250000   0.1250000  -0.1250000), wk =   0.0039062
        k(  133) = (   0.2500000  -0.7500000   0.7500000), wk =   0.0039062
        k(  134) = (   0.1250000  -0.6250000   0.6250000), wk =   0.0039062
        k(  135) = (   0.0000000  -0.5000000   0.5000000), wk =   0.0039062
        k(  136) = (  -0.1250000  -0.3750000   0.3750000), wk =   0.0039062
        k(  137) = (  -0.1250000  -0.1250000   0.3750000), wk =   0.0039062
        k(  138) = (  -0.2500000   0.0000000   0.2500000), wk =   0.0039062
        k(  139) = (  -0.3750000   0.1250000   0.1250000), wk =   0.0039062
        k(  140) = (  -0.5000000   0.2500000   0.0000000), wk =   0.0039062
        k(  141) = (   0.3750000  -0.6250000   0.8750000), wk =   0.0039062
        k(  142) = (   0.2500000  -0.5000000   0.7500000), wk =   0.0039062
        k(  143) = (   0.1250000  -0.3750000   0.6250000), wk =   0.0039062
        k(  144) = (   0.0000000  -0.2500000   0.5000000), wk =   0.0039062
        k(  145) = (   0.0000000   0.0000000   0.5000000), wk =   0.0039062
        k(  146) = (  -0.1250000   0.1250000   0.3750000), wk =   0.0039062
        k(  147) = (  -0.2500000   0.2500000   0.2500000), wk =   0.0039062
        k(  148) = (  -0.3750000   0.3750000   0.1250000), wk =   0.0039062
        k(  149) = (   0.5000000  -0.5000000   1.0000000), wk =   0.0039062
        k(  150) = (   0.3750000  -0.3750000   0.8750000), wk =   0.0039062
        k(  151) = (   0.2500000  -0.2500000   0.7500000), wk =   0.0039062
        k(  152) = (   0.1250000  -0.1250000   0.6250000), wk =   0.0039062
        k(  153) = (   0.1250000   0.1250000   0.6250000), wk =   0.0039062
        k(  154) = (   0.0000000   0.2500000   0.5000000), wk =   0.0039062
        k(  155) = (  -0.1250000   0.3750000   0.3750000), wk =   0.0039062
        k(  156) = (  -0.2500000   0.5000000   0.2500000), wk =   0.0039062
        k(  157) = (   0.6250000  -0.3750000   1.1250000), wk =   0.0039062
        k(  158) = (   0.5000000  -0.2500000   1.0000000), wk =   0.0039062
        k(  159) = (   0.3750000  -0.1250000   0.8750000), wk =   0.0039062
        k(  160) = (   0.2500000   0.0000000   0.7500000), wk =   0.0039062
        k(  161) = (  -0.7500000  -0.7500000  -0.2500000), wk =   0.0039062
        k(  162) = (  -0.8750000  -0.6250000  -0.3750000), wk =   0.0039062
        k(  163) = (  -1.0000000  -0.5000000  -0.5000000), wk =   0.0039062
        k(  164) = (  -1.1250000  -0.3750000  -0.6250000), wk =   0.0039062
        k(  165) = (  -0.2500000  -1.2500000   0.2500000), wk =   0.0039062
        k(  166) = (  -0.3750000  -1.1250000   0.1250000), wk =   0.0039062
        k(  167) = (  -0.5000000  -1.0000000   0.0000000), wk =   0.0039062
        k(  168) = (  -0.6250000  -0.8750000  -0.1250000), wk =   0.0039062
        k(  169) = (  -0.6250000  -0.6250000  -0.1250000), wk =   0.0039062
        k(  170) = (  -0.7500000  -0.5000000  -0.2500000), wk =   0.0039062
        k(  171) = (  -0.8750000  -0.3750000  -0.3750000), wk =   0.0039062
        k(  172) = (  -1.0000000  -0.2500000  -0.5000000), wk =   0.0039062
        k(  173) = (  -0.1250000  -1.1250000   0.3750000), wk =   0.0039062
        k(  174) = (  -0.2500000  -1.0000000   0.2500000), wk =   0.0039062
        k(  175) = (  -0.3750000  -0.8750000   0.1250000), wk =   0.0039062
        k(  176) = (  -0.5000000  -0.7500000   0.0000000), wk =   0.0039062
        k(  177) = (  -0.5000000  -0.5000000   0.0000000), wk =   0.0039062
        k(  178) = (  -0.6250000  -0.3750000  -0.1250000), wk =   0.0039062
        k(  179) = (  -0.7500000  -0.2500000  -0.2500000), wk =   0.0039062
        k(  180) = (  -0.8750000  -0.1250000  -0.3750000), wk =   0.0039062
        k(  181) = (   0.0000000  -1.0000000   0.5000000), wk =   0.0039062
        k(  182) = (  -0.1250000  -0.8750000   0.3750000), wk =   0.0039062
        k(  183) = (  -0.2500000  -0.7500000   0.2500000), wk =   0.0039062
        k(  184) = (  -0.3750000  -0.6250000   0.1250000), wk =   0.0039062
        k(  185) = (  -0.3750000  -0.3750000   0.1250000), wk =   0.0039062
        k(  186) = (  -0.5000000  -0.2500000   0.0000000), wk =   0.0039062
        k(  187) = (  -0.6250000  -0.1250000  -0.1250000), wk =   0.0039062
        k(  188) = (  -0.7500000   0.0000000  -0.2500000), wk =   0.0039062
        k(  189) = (   0.1250000  -0.8750000   0.6250000), wk =   0.0039062
        k(  190) = (   0.0000000  -0.7500000   0.5000000), wk =   0.0039062
        k(  191) = (  -0.1250000  -0.6250000   0.3750000), wk =   0.0039062
        k(  192) = (  -0.2500000  -0.5000000   0.2500000), wk =   0.0039062
        k(  193) = (  -0.3750000  -0.3750000   0.3750000), wk =   0.0039062
        k(  194) = (  -0.5000000  -0.2500000   0.2500000), wk =   0.0039062
        k(  195) = (  -0.6250000  -0.1250000   0.1250000), wk =   0.0039062
        k(  196) = (  -0.7500000   0.0000000   0.0000000), wk =   0.0039062
        k(  197) = (   0.1250000  -0.8750000   0.8750000), wk =   0.0039062
        k(  198) = (   0.0000000  -0.7500000   0.7500000), wk =   0.0039062
        k(  199) = (  -0.1250000  -0.6250000   0.6250000), wk =   0.0039062
        k(  200) = (  -0.2500000  -0.5000000   0.5000000), wk =   0.0039062
        k(  201) = (  -0.2500000  -0.2500000   0.5000000), wk =   0.0039062
        k(  202) = (  -0.3750000  -0.1250000   0.3750000), wk =   0.0039062
        k(  203) = (  -0.5000000   0.0000000   0.2500000), wk =   0.0039062
        k(  204) = (  -0.6250000   0.1250000   0.1250000), wk =   0.0039062
        k(  205) = (   0.2500000  -0.7500000   1.0000000), wk =   0.0039062
        k(  206) = (   0.1250000  -0.6250000   0.8750000), wk =   0.0039062
        k(  207) = (   0.0000000  -0.5000000   0.7500000), wk =   0.0039062
        k(  208) = (  -0.1250000  -0.3750000   0.6250000), wk =   0.0039062
        k(  209) = (  -0.1250000  -0.1250000   0.6250000), wk =   0.0039062
        k(  210) = (  -0.2500000   0.0000000   0.5000000), wk =   0.0039062
        k(  211) = (  -0.3750000   0.1250000   0.3750000), wk =   0.0039062
        k(  212) = (  -0.5000000   0.2500000   0.2500000), wk =   0.0039062
        k(  213) = (   0.3750000  -0.6250000   1.1250000), wk =   0.0039062
        k(  214) = (   0.2500000  -0.5000000   1.0000000), wk =   0.0039062
        k(  215) = (   0.1250000  -0.3750000   0.8750000), wk =   0.0039062
        k(  216) = (   0.0000000  -0.2500000   0.7500000), wk =   0.0039062
        k(  217) = (   0.0000000   0.0000000   0.7500000), wk =   0.0039062
        k(  218) = (  -0.1250000   0.1250000   0.6250000), wk =   0.0039062
        k(  219) = (  -0.2500000   0.2500000   0.5000000), wk =   0.0039062
        k(  220) = (  -0.3750000   0.3750000   0.3750000), wk =   0.0039062
        k(  221) = (   0.5000000  -0.5000000   1.2500000), wk =   0.0039062
        k(  222) = (   0.3750000  -0.3750000   1.1250000), wk =   0.0039062
        k(  223) = (   0.2500000  -0.2500000   1.0000000), wk =   0.0039062
        k(  224) = (   0.1250000  -0.1250000   0.8750000), wk =   0.0039062
        k(  225) = (  -0.8750000  -0.8750000  -0.1250000), wk =   0.0039062
        k(  226) = (  -1.0000000  -0.7500000  -0.2500000), wk =   0.0039062
        k(  227) = (  -1.1250000  -0.6250000  -0.3750000), wk =   0.0039062
        k(  228) = (  -1.2500000  -0.5000000  -0.5000000), wk =   0.0039062
        k(  229) = (  -0.3750000  -1.3750000   0.3750000), wk =   0.0039062
        k(  230) = (  -0.5000000  -1.2500000   0.2500000), wk =   0.0039062
        k(  231) = (  -0.6250000  -1.1250000   0.1250000), wk =   0.0039062
        k(  232) = (  -0.7500000  -1.0000000   0.0000000), wk =   0.0039062
        k(  233) = (  -0.7500000  -0.7500000   0.0000000), wk =   0.0039062
        k(  234) = (  -0.8750000  -0.6250000  -0.1250000), wk =   0.0039062
        k(  235) = (  -1.0000000  -0.5000000  -0.2500000), wk =   0.0039062
        k(  236) = (  -1.1250000  -0.3750000  -0.3750000), wk =   0.0039062
        k(  237) = (  -0.2500000  -1.2500000   0.5000000), wk =   0.0039062
        k(  238) = (  -0.3750000  -1.1250000   0.3750000), wk =   0.0039062
        k(  239) = (  -0.5000000  -1.0000000   0.2500000), wk =   0.0039062
        k(  240) = (  -0.6250000  -0.8750000   0.1250000), wk =   0.0039062
        k(  241) = (  -0.6250000  -0.6250000   0.1250000), wk =   0.0039062
        k(  242) = (  -0.7500000  -0.5000000   0.0000000), wk =   0.0039062
        k(  243) = (  -0.8750000  -0.3750000  -0.1250000), wk =   0.0039062
        k(  244) = (  -1.0000000  -0.2500000  -0.2500000), wk =   0.0039062
        k(  245) = (  -0.1250000  -1.1250000   0.6250000), wk =   0.0039062
        k(  246) = (  -0.2500000  -1.0000000   0.5000000), wk =   0.0039062
        k(  247) = (  -0.3750000  -0.8750000   0.3750000), wk =   0.0039062
        k(  248) = (  -0.5000000  -0.7500000   0.2500000), wk =   0.0039062
        k(  249) = (  -0.5000000  -0.5000000   0.2500000), wk =   0.0039062
        k(  250) = (  -0.6250000  -0.3750000   0.1250000), wk =   0.0039062
        k(  251) = (  -0.7500000  -0.2500000   0.0000000), wk =   0.0039062
        k(  252) = (  -0.8750000  -0.1250000  -0.1250000), wk =   0.0039062
        k(  253) = (   0.0000000  -1.0000000   0.7500000), wk =   0.0039062
        k(  254) = (  -0.1250000  -0.8750000   0.6250000), wk =   0.0039062
        k(  255) = (  -0.2500000  -0.7500000   0.5000000), wk =   0.0039062
        k(  256) = (  -0.3750000  -0.6250000   0.3750000), wk =   0.0039062
        k(  257) = (   0.5000000   0.5000000  -0.5000000), wk =   0.0039062
        k(  258) = (   0.3750000   0.6250000  -0.6250000), wk =   0.0039062
        k(  259) = (   0.2500000   0.7500000  -0.7500000), wk =   0.0039062
        k(  260) = (   0.1250000   0.8750000  -0.8750000), wk =   0.0039062
        k(  261) = (   1.0000000   0.0000000   0.0000000), wk =   0.0039062
        k(  262) = (   0.8750000   0.1250000  -0.1250000), wk =   0.0039062
        k(  263) = (   0.7500000   0.2500000  -0.2500000), wk =   0.0039062
        k(  264) = (   0.6250000   0.3750000  -0.3750000), wk =   0.0039062
        k(  265) = (   0.6250000   0.6250000  -0.3750000), wk =   0.0039062
        k(  266) = (   0.5000000   0.7500000  -0.5000000), wk =   0.0039062
        k(  267) = (   0.3750000   0.8750000  -0.6250000), wk =   0.0039062
        k(  268) = (   0.2500000   1.0000000  -0.7500000), wk =   0.0039062
        k(  269) = (   1.1250000   0.1250000   0.1250000), wk =   0.0039062
        k(  270) = (   1.0000000   0.2500000   0.0000000), wk =   0.0039062
        k(  271) = (   0.8750000   0.3750000  -0.1250000), wk =   0.0039062
        k(  272) = (   0.7500000   0.5000000  -0.2500000), wk =   0.0039062
        k(  273) = (   0.7500000   0.7500000  -0.2500000), wk =   0.0039062
        k(  274) = (   0.6250000   0.8750000  -0.3750000), wk =   0.0039062
        k(  275) = (   0.5000000   1.0000000  -0.5000000), wk =   0.0039062
        k(  276) = (   0.3750000   1.1250000  -0.6250000), wk =   0.0039062
        k(  277) = (   1.2500000   0.2500000   0.2500000), wk =   0.0039062
        k(  278) = (   1.1250000   0.3750000   0.1250000), wk =   0.0039062
        k(  279) = (   1.0000000   0.5000000   0.0000000), wk =   0.0039062
        k(  280) = (   0.8750000   0.6250000  -0.1250000), wk =   0.0039062
        k(  281) = (   0.8750000   0.8750000  -0.1250000), wk =   0.0039062
        k(  282) = (   0.7500000   1.0000000  -0.2500000), wk =   0.0039062
        k(  283) = (   0.6250000   1.1250000  -0.3750000), wk =   0.0039062
        k(  284) = (   0.5000000   1.2500000  -0.5000000), wk =   0.0039062
        k(  285) = (   1.3750000   0.3750000   0.3750000), wk =   0.0039062
        k(  286) = (   1.2500000   0.5000000   0.2500000), wk =   0.0039062
        k(  287) = (   1.1250000   0.6250000   0.1250000), wk =   0.0039062
        k(  288) = (   1.0000000   0.7500000   0.0000000), wk =   0.0039062
        k(  289) = (   0.0000000   0.0000000  -1.0000000), wk =   0.0039062
        k(  290) = (  -0.1250000   0.1250000  -1.1250000), wk =   0.0039062
        k(  291) = (  -0.2500000   0.2500000  -1.2500000), wk =   0.0039062
        k(  292) = (  -0.3750000   0.3750000  -1.3750000), wk =   0.0039062
        k(  293) = (   0.5000000  -0.5000000  -0.5000000), wk =   0.0039062
        k(  294) = (   0.3750000  -0.3750000  -0.6250000), wk =   0.0039062
        k(  295) = (   0.2500000  -0.2500000  -0.7500000), wk =   0.0039062
        k(  296) = (   0.1250000  -0.1250000  -0.8750000), wk =   0.0039062
        k(  297) = (   0.1250000   0.1250000  -0.8750000), wk =   0.0039062
        k(  298) = (   0.0000000   0.2500000  -1.0000000), wk =   0.0039062
        k(  299) = (  -0.1250000   0.3750000  -1.1250000), wk =   0.0039062
        k(  300) = (  -0.2500000   0.5000000  -1.2500000), wk =   0.0039062
        k(  301) = (   0.6250000  -0.3750000  -0.3750000), wk =   0.0039062
        k(  302) = (   0.5000000  -0.2500000  -0.5000000), wk =   0.0039062
        k(  303) = (   0.3750000  -0.1250000  -0.6250000), wk =   0.0039062
        k(  304) = (   0.2500000   0.0000000  -0.7500000), wk =   0.0039062
        k(  305) = (   0.2500000   0.2500000  -0.7500000), wk =   0.0039062
        k(  306) = (   0.1250000   0.3750000  -0.8750000), wk =   0.0039062
        k(  307) = (   0.0000000   0.5000000  -1.0000000), wk =   0.0039062
        k(  308) = (  -0.1250000   0.6250000  -1.1250000), wk =   0.0039062
        k(  309) = (   0.7500000  -0.2500000  -0.2500000), wk =   0.0039062
        k(  310) = (   0.6250000  -0.1250000  -0.3750000), wk =   0.0039062
        k(  311) = (   0.5000000   0.0000000  -0.5000000), wk =   0.0039062
        k(  312) = (   0.3750000   0.1250000  -0.6250000), wk =   0.0039062
        k(  313) = (   0.3750000   0.3750000  -0.6250000), wk =   0.0039062
        k(  314) = (   0.2500000   0.5000000  -0.7500000), wk =   0.0039062
        k(  315) = (   0.1250000   0.6250000  -0.8750000), wk =   0.0039062
        k(  316) = (   0.0000000   0.7500000  -1.0000000), wk =   0.0039062
        k(  317) = (   0.8750000  -0.1250000  -0.1250000), wk =   0.0039062
        k(  318) = (   0.7500000   0.0000000  -0.2500000), wk =   0.0039062
        k(  319) = (   0.6250000   0.1250000  -0.3750000), wk =   0.0039062
        k(  320) = (   0.5000000   0.2500000  -0.5000000), wk =   0.0039062
        k(  321) = (   0.3750000   0.3750000  -0.3750000), wk =   0.0039062
        k(  322) = (   0.2500000   0.5000000  -0.5000000), wk =   0.0039062
        k(  323) = (   0.1250000   0.6250000  -0.6250000), wk =   0.0039062
        k(  324) = (   0.0000000   0.7500000  -0.7500000), wk =   0.0039062
        k(  325) = (   0.8750000  -0.1250000   0.1250000), wk =   0.0039062
        k(  326) = (   0.7500000   0.0000000   0.0000000), wk =   0.0039062
        k(  327) = (   0.6250000   0.1250000  -0.1250000), wk =   0.0039062
        k(  328) = (   0.5000000   0.2500000  -0.2500000), wk =   0.0039062
        k(  329) = (   0.5000000   0.5000000  -0.2500000), wk =   0.0039062
        k(  330) = (   0.3750000   0.6250000  -0.3750000), wk =   0.0039062
        k(  331) = (   0.2500000   0.7500000  -0.5000000), wk =   0.0039062
        k(  332) = (   0.1250000   0.8750000  -0.6250000), wk =   0.0039062
        k(  333) = (   1.0000000   0.0000000   0.2500000), wk =   0.0039062
        k(  334) = (   0.8750000   0.1250000   0.1250000), wk =   0.0039062
        k(  335) = (   0.7500000   0.2500000   0.0000000), wk =   0.0039062
        k(  336) = (   0.6250000   0.3750000  -0.1250000), wk =   0.0039062
        k(  337) = (   0.6250000   0.6250000  -0.1250000), wk =   0.0039062
        k(  338) = (   0.5000000   0.7500000  -0.2500000), wk =   0.0039062
        k(  339) = (   0.3750000   0.8750000  -0.3750000), wk =   0.0039062
        k(  340) = (   0.2500000   1.0000000  -0.5000000), wk =   0.0039062
        k(  341) = (   1.1250000   0.1250000   0.3750000), wk =   0.0039062
        k(  342) = (   1.0000000   0.2500000   0.2500000), wk =   0.0039062
        k(  343) = (   0.8750000   0.3750000   0.1250000), wk =   0.0039062
        k(  344) = (   0.7500000   0.5000000   0.0000000), wk =   0.0039062
        k(  345) = (   0.7500000   0.7500000   0.0000000), wk =   0.0039062
        k(  346) = (   0.6250000   0.8750000  -0.1250000), wk =   0.0039062
        k(  347) = (   0.5000000   1.0000000  -0.2500000), wk =   0.0039062
        k(  348) = (   0.3750000   1.1250000  -0.3750000), wk =   0.0039062
        k(  349) = (   1.2500000   0.2500000   0.5000000), wk =   0.0039062
        k(  350) = (   1.1250000   0.3750000   0.3750000), wk =   0.0039062
        k(  351) = (   1.0000000   0.5000000   0.2500000), wk =   0.0039062
        k(  352) = (   0.8750000   0.6250000   0.1250000), wk =   0.0039062
        k(  353) = (  -0.1250000  -0.1250000  -0.8750000), wk =   0.0039062
        k(  354) = (  -0.2500000   0.0000000  -1.0000000), wk =   0.0039062
        k(  355) = (  -0.3750000   0.1250000  -1.1250000), wk =   0.0039062
        k(  356) = (  -0.5000000   0.2500000  -1.2500000), wk =   0.0039062
        k(  357) = (   0.3750000  -0.6250000  -0.3750000), wk =   0.0039062
        k(  358) = (   0.2500000  -0.5000000  -0.5000000), wk =   0.0039062
        k(  359) = (   0.1250000  -0.3750000  -0.6250000), wk =   0.0039062
        k(  360) = (   0.0000000  -0.2500000  -0.7500000), wk =   0.0039062
        k(  361) = (   0.0000000   0.0000000  -0.7500000), wk =   0.0039062
        k(  362) = (  -0.1250000   0.1250000  -0.8750000), wk =   0.0039062
        k(  363) = (  -0.2500000   0.2500000  -1.0000000), wk =   0.0039062
        k(  364) = (  -0.3750000   0.3750000  -1.1250000), wk =   0.0039062
        k(  365) = (   0.5000000  -0.5000000  -0.2500000), wk =   0.0039062
        k(  366) = (   0.3750000  -0.3750000  -0.3750000), wk =   0.0039062
        k(  367) = (   0.2500000  -0.2500000  -0.5000000), wk =   0.0039062
        k(  368) = (   0.1250000  -0.1250000  -0.6250000), wk =   0.0039062
        k(  369) = (   0.1250000   0.1250000  -0.6250000), wk =   0.0039062
        k(  370) = (   0.0000000   0.2500000  -0.7500000), wk =   0.0039062
        k(  371) = (  -0.1250000   0.3750000  -0.8750000), wk =   0.0039062
        k(  372) = (  -0.2500000   0.5000000  -1.0000000), wk =   0.0039062
        k(  373) = (   0.6250000  -0.3750000  -0.1250000), wk =   0.0039062
        k(  374) = (   0.5000000  -0.2500000  -0.2500000), wk =   0.0039062
        k(  375) = (   0.3750000  -0.1250000  -0.3750000), wk =   0.0039062
        k(  376) = (   0.2500000   0.0000000  -0.5000000), wk =   0.0039062
        k(  377) = (   0.2500000   0.2500000  -0.5000000), wk =   0.0039062
        k(  378) = (   0.1250000   0.3750000  -0.6250000), wk =   0.0039062
        k(  379) = (   0.0000000   0.5000000  -0.7500000), wk =   0.0039062
        k(  380) = (  -0.1250000   0.6250000  -0.8750000), wk =   0.0039062
        k(  381) = (   0.7500000  -0.2500000   0.0000000), wk =   0.0039062
        k(  382) = (   0.6250000  -0.1250000  -0.1250000), wk =   0.0039062
        k(  383) = (   0.5000000   0.0000000  -0.2500000), wk =   0.0039062
        k(  384) = (   0.3750000   0.1250000  -0.3750000), wk =   0.0039062
        k(  385) = (   0.2500000   0.2500000  -0.2500000), wk =   0.0039062
        k(  386) = (   0.1250000   0.3750000  -0.3750000), wk =   0.0039062
        k(  387) = (   0.0000000   0.5000000  -0.5000000), wk =   0.0039062
        k(  388) = (  -0.1250000   0.6250000  -0.6250000), wk =   0.0039062
        k(  389) = (   0.7500000  -0.2500000   0.2500000), wk =   0.0039062
        k(  390) = (   0.6250000  -0.1250000   0.1250000), wk =   0.0039062
        k(  391) = (   0.5000000   0.0000000   0.0000000), wk =   0.0039062
        k(  392) = (   0.3750000   0.1250000  -0.1250000), wk =   0.0039062
        k(  393) = (   0.3750000   0.3750000  -0.1250000), wk =   0.0039062
        k(  394) = (   0.2500000   0.5000000  -0.2500000), wk =   0.0039062
        k(  395) = (   0.1250000   0.6250000  -0.3750000), wk =   0.0039062
        k(  396) = (   0.0000000   0.7500000  -0.5000000), wk =   0.0039062
        k(  397) = (   0.8750000  -0.1250000   0.3750000), wk =   0.0039062
        k(  398) = (   0.7500000   0.0000000   0.2500000), wk =   0.0039062
        k(  399) = (   0.6250000   0.1250000   0.1250000), wk =   0.0039062
        k(  400) = (   0.5000000   0.2500000   0.0000000), wk =   0.0039062
        k(  401) = (   0.5000000   0.5000000   0.0000000), wk =   0.0039062
        k(  402) = (   0.3750000   0.6250000  -0.1250000), wk =   0.0039062
        k(  403) = (   0.2500000   0.7500000  -0.2500000), wk =   0.0039062
        k(  404) = (   0.1250000   0.8750000  -0.3750000), wk =   0.0039062
        k(  405) = (   1.0000000   0.0000000   0.5000000), wk =   0.0039062
        k(  406) = (   0.8750000   0.1250000   0.3750000), wk =   0.0039062
        k(  407) = (   0.7500000   0.2500000   0.2500000), wk =   0.0039062
        k(  408) = (   0.6250000   0.3750000   0.1250000), wk =   0.0039062
        k(  409) = (   0.6250000   0.6250000   0.1250000), wk =   0.0039062
        k(  410) = (   0.5000000   0.7500000   0.0000000), wk =   0.0039062
        k(  411) = (   0.3750000   0.8750000  -0.1250000), wk =   0.0039062
        k(  412) = (   0.2500000   1.0000000  -0.2500000), wk =   0.0039062
        k(  413) = (   1.1250000   0.1250000   0.6250000), wk =   0.0039062
        k(  414) = (   1.0000000   0.2500000   0.5000000), wk =   0.0039062
        k(  415) = (   0.8750000   0.3750000   0.3750000), wk =   0.0039062
        k(  416) = (   0.7500000   0.5000000   0.2500000), wk =   0.0039062
        k(  417) = (  -0.2500000  -0.2500000  -0.7500000), wk =   0.0039062
        k(  418) = (  -0.3750000  -0.1250000  -0.8750000), wk =   0.0039062
        k(  419) = (  -0.5000000   0.0000000  -1.0000000), wk =   0.0039062
        k(  420) = (  -0.6250000   0.1250000  -1.1250000), wk =   0.0039062
        k(  421) = (   0.2500000  -0.7500000  -0.2500000), wk =   0.0039062
        k(  422) = (   0.1250000  -0.6250000  -0.3750000), wk =   0.0039062
        k(  423) = (   0.0000000  -0.5000000  -0.5000000), wk =   0.0039062
        k(  424) = (  -0.1250000  -0.3750000  -0.6250000), wk =   0.0039062
        k(  425) = (  -0.1250000  -0.1250000  -0.6250000), wk =   0.0039062
        k(  426) = (  -0.2500000   0.0000000  -0.7500000), wk =   0.0039062
        k(  427) = (  -0.3750000   0.1250000  -0.8750000), wk =   0.0039062
        k(  428) = (  -0.5000000   0.2500000  -1.0000000), wk =   0.0039062
        k(  429) = (   0.3750000  -0.6250000  -0.1250000), wk =   0.0039062
        k(  430) = (   0.2500000  -0.5000000  -0.2500000), wk =   0.0039062
        k(  431) = (   0.1250000  -0.3750000  -0.3750000), wk =   0.0039062
        k(  432) = (   0.0000000  -0.2500000  -0.5000000), wk =   0.0039062
        k(  433) = (   0.0000000   0.0000000  -0.5000000), wk =   0.0039062
        k(  434) = (  -0.1250000   0.1250000  -0.6250000), wk =   0.0039062
        k(  435) = (  -0.2500000   0.2500000  -0.7500000), wk =   0.0039062
        k(  436) = (  -0.3750000   0.3750000  -0.8750000), wk =   0.0039062
        k(  437) = (   0.5000000  -0.5000000   0.0000000), wk =   0.0039062
        k(  438) = (   0.3750000  -0.3750000  -0.1250000), wk =   0.0039062
        k(  439) = (   0.2500000  -0.2500000  -0.2500000), wk =   0.0039062
        k(  440) = (   0.1250000  -0.1250000  -0.3750000), wk =   0.0039062
        k(  441) = (   0.1250000   0.1250000  -0.3750000), wk =   0.0039062
        k(  442) = (   0.0000000   0.2500000  -0.5000000), wk =   0.0039062
        k(  443) = (  -0.1250000   0.3750000  -0.6250000), wk =   0.0039062
        k(  444) = (  -0.2500000   0.5000000  -0.7500000), wk =   0.0039062
        k(  445) = (   0.6250000  -0.3750000   0.1250000), wk =   0.0039062
        k(  446) = (   0.5000000  -0.2500000   0.0000000), wk =   0.0039062
        k(  447) = (   0.3750000  -0.1250000  -0.1250000), wk =   0.0039062
        k(  448) = (   0.2500000   0.0000000  -0.2500000), wk =   0.0039062
        k(  449) = (   0.1250000   0.1250000  -0.1250000), wk =   0.0039062
        k(  450) = (   0.0000000   0.2500000  -0.2500000), wk =   0.0039062
        k(  451) = (  -0.1250000   0.3750000  -0.3750000), wk =   0.0039062
        k(  452) = (  -0.2500000   0.5000000  -0.5000000), wk =   0.0039062
        k(  453) = (   0.6250000  -0.3750000   0.3750000), wk =   0.0039062
        k(  454) = (   0.5000000  -0.2500000   0.2500000), wk =   0.0039062
        k(  455) = (   0.3750000  -0.1250000   0.1250000), wk =   0.0039062
        k(  456) = (   0.2500000   0.0000000   0.0000000), wk =   0.0039062
        k(  457) = (   0.2500000   0.2500000   0.0000000), wk =   0.0039062
        k(  458) = (   0.1250000   0.3750000  -0.1250000), wk =   0.0039062
        k(  459) = (   0.0000000   0.5000000  -0.2500000), wk =   0.0039062
        k(  460) = (  -0.1250000   0.6250000  -0.3750000), wk =   0.0039062
        k(  461) = (   0.7500000  -0.2500000   0.5000000), wk =   0.0039062
        k(  462) = (   0.6250000  -0.1250000   0.3750000), wk =   0.0039062
        k(  463) = (   0.5000000   0.0000000   0.2500000), wk =   0.0039062
        k(  464) = (   0.3750000   0.1250000   0.1250000), wk =   0.0039062
        k(  465) = (   0.3750000   0.3750000   0.1250000), wk =   0.0039062
        k(  466) = (   0.2500000   0.5000000   0.0000000), wk =   0.0039062
        k(  467) = (   0.1250000   0.6250000  -0.1250000), wk =   0.0039062
        k(  468) = (   0.0000000   0.7500000  -0.2500000), wk =   0.0039062
        k(  469) = (   0.8750000  -0.1250000   0.6250000), wk =   0.0039062
        k(  470) = (   0.7500000   0.0000000   0.5000000), wk =   0.0039062
        k(  471) = (   0.6250000   0.1250000   0.3750000), wk =   0.0039062
        k(  472) = (   0.5000000   0.2500000   0.2500000), wk =   0.0039062
        k(  473) = (   0.5000000   0.5000000   0.2500000), wk =   0.0039062
        k(  474) = (   0.3750000   0.6250000   0.1250000), wk =   0.0039062
        k(  475) = (   0.2500000   0.7500000   0.0000000), wk =   0.0039062
        k(  476) = (   0.1250000   0.8750000  -0.1250000), wk =   0.0039062
        k(  477) = (   1.0000000   0.0000000   0.7500000), wk =   0.0039062
        k(  478) = (   0.8750000   0.1250000   0.6250000), wk =   0.0039062
        k(  479) = (   0.7500000   0.2500000   0.5000000), wk =   0.0039062
        k(  480) = (   0.6250000   0.3750000   0.3750000), wk =   0.0039062
        k(  481) = (  -0.3750000  -0.3750000  -0.6250000), wk =   0.0039062
        k(  482) = (  -0.5000000  -0.2500000  -0.7500000), wk =   0.0039062
        k(  483) = (  -0.6250000  -0.1250000  -0.8750000), wk =   0.0039062
        k(  484) = (  -0.7500000   0.0000000  -1.0000000), wk =   0.0039062
        k(  485) = (   0.1250000  -0.8750000  -0.1250000), wk =   0.0039062
        k(  486) = (   0.0000000  -0.7500000  -0.2500000), wk =   0.0039062
        k(  487) = (  -0.1250000  -0.6250000  -0.3750000), wk =   0.0039062
        k(  488) = (  -0.2500000  -0.5000000  -0.5000000), wk =   0.0039062
        k(  489) = (  -0.2500000  -0.2500000  -0.5000000), wk =   0.0039062
        k(  490) = (  -0.3750000  -0.1250000  -0.6250000), wk =   0.0039062
        k(  491) = (  -0.5000000   0.0000000  -0.7500000), wk =   0.0039062
        k(  492) = (  -0.6250000   0.1250000  -0.8750000), wk =   0.0039062
        k(  493) = (   0.2500000  -0.7500000   0.0000000), wk =   0.0039062
        k(  494) = (   0.1250000  -0.6250000  -0.1250000), wk =   0.0039062
        k(  495) = (   0.0000000  -0.5000000  -0.2500000), wk =   0.0039062
        k(  496) = (  -0.1250000  -0.3750000  -0.3750000), wk =   0.0039062
        k(  497) = (  -0.1250000  -0.1250000  -0.3750000), wk =   0.0039062
        k(  498) = (  -0.2500000   0.0000000  -0.5000000), wk =   0.0039062
        k(  499) = (  -0.3750000   0.1250000  -0.6250000), wk =   0.0039062
        k(  500) = (  -0.5000000   0.2500000  -0.7500000), wk =   0.0039062
        k(  501) = (   0.3750000  -0.6250000   0.1250000), wk =   0.0039062
        k(  502) = (   0.2500000  -0.5000000   0.0000000), wk =   0.0039062
        k(  503) = (   0.1250000  -0.3750000  -0.1250000), wk =   0.0039062
        k(  504) = (   0.0000000  -0.2500000  -0.2500000), wk =   0.0039062
        k(  505) = (   0.0000000   0.0000000  -0.2500000), wk =   0.0039062
        k(  506) = (  -0.1250000   0.1250000  -0.3750000), wk =   0.0039062
        k(  507) = (  -0.2500000   0.2500000  -0.5000000), wk =   0.0039062
        k(  508) = (  -0.3750000   0.3750000  -0.6250000), wk =   0.0039062
        k(  509) = (   0.5000000  -0.5000000   0.2500000), wk =   0.0039062
        k(  510) = (   0.3750000  -0.3750000   0.1250000), wk =   0.0039062
        k(  511) = (   0.2500000  -0.2500000   0.0000000), wk =   0.0039062
        k(  512) = (   0.1250000  -0.1250000  -0.1250000), wk =   0.0039062

                       cryst. coord.
        k(    1) = (   0.0000000   0.0000000   0.0000000), wk =   0.0039062
        k(    2) = (   0.0000000   0.0000000   0.1250000), wk =   0.0039062
        k(    3) = (   0.0000000   0.0000000   0.2500000), wk =   0.0039062
        k(    4) = (   0.0000000   0.0000000   0.3750000), wk =   0.0039062
        k(    5) = (   0.0000000   0.0000000  -0.5000000), wk =   0.0039062
        k(    6) = (   0.0000000   0.0000000  -0.3750000), wk =   0.0039062
        k(    7) = (   0.0000000   0.0000000  -0.2500000), wk =   0.0039062
        k(    8) = (   0.0000000   0.0000000  -0.1250000), wk =   0.0039062
        k(    9) = (   0.0000000   0.1250000   0.0000000), wk =   0.0039062
        k(   10) = (   0.0000000   0.1250000   0.1250000), wk =   0.0039062
        k(   11) = (   0.0000000   0.1250000   0.2500000), wk =   0.0039062
        k(   12) = (   0.0000000   0.1250000   0.3750000), wk =   0.0039062
        k(   13) = (   0.0000000   0.1250000  -0.5000000), wk =   0.0039062
        k(   14) = (   0.0000000   0.1250000  -0.3750000), wk =   0.0039062
        k(   15) = (   0.0000000   0.1250000  -0.2500000), wk =   0.0039062
        k(   16) = (   0.0000000   0.1250000  -0.1250000), wk =   0.0039062
        k(   17) = (   0.0000000   0.2500000   0.0000000), wk =   0.0039062
        k(   18) = (   0.0000000   0.2500000   0.1250000), wk =   0.0039062
        k(   19) = (   0.0000000   0.2500000   0.2500000), wk =   0.0039062
        k(   20) = (   0.0000000   0.2500000   0.3750000), wk =   0.0039062
        k(   21) = (   0.0000000   0.2500000  -0.5000000), wk =   0.0039062
        k(   22) = (   0.0000000   0.2500000  -0.3750000), wk =   0.0039062
        k(   23) = (   0.0000000   0.2500000  -0.2500000), wk =   0.0039062
        k(   24) = (   0.0000000   0.2500000  -0.1250000), wk =   0.0039062
        k(   25) = (   0.0000000   0.3750000   0.0000000), wk =   0.0039062
        k(   26) = (   0.0000000   0.3750000   0.1250000), wk =   0.0039062
        k(   27) = (   0.0000000   0.3750000   0.2500000), wk =   0.0039062
        k(   28) = (   0.0000000   0.3750000   0.3750000), wk =   0.0039062
        k(   29) = (   0.0000000   0.3750000  -0.5000000), wk =   0.0039062
        k(   30) = (   0.0000000   0.3750000  -0.3750000), wk =   0.0039062
        k(   31) = (   0.0000000   0.3750000  -0.2500000), wk =   0.0039062
        k(   32) = (   0.0000000   0.3750000  -0.1250000), wk =   0.0039062
        k(   33) = (   0.0000000  -0.5000000   0.0000000), wk =   0.0039062
        k(   34) = (   0.0000000  -0.5000000   0.1250000), wk =   0.0039062
        k(   35) = (   0.0000000  -0.5000000   0.2500000), wk =   0.0039062
        k(   36) = (   0.0000000  -0.5000000   0.3750000), wk =   0.0039062
        k(   37) = (   0.0000000  -0.5000000  -0.5000000), wk =   0.0039062
        k(   38) = (   0.0000000  -0.5000000  -0.3750000), wk =   0.0039062
        k(   39) = (   0.0000000  -0.5000000  -0.2500000), wk =   0.0039062
        k(   40) = (   0.0000000  -0.5000000  -0.1250000), wk =   0.0039062
        k(   41) = (   0.0000000  -0.3750000   0.0000000), wk =   0.0039062
        k(   42) = (   0.0000000  -0.3750000   0.1250000), wk =   0.0039062
        k(   43) = (   0.0000000  -0.3750000   0.2500000), wk =   0.0039062
        k(   44) = (   0.0000000  -0.3750000   0.3750000), wk =   0.0039062
        k(   45) = (   0.0000000  -0.3750000  -0.5000000), wk =   0.0039062
        k(   46) = (   0.0000000  -0.3750000  -0.3750000), wk =   0.0039062
        k(   47) = (   0.0000000  -0.3750000  -0.2500000), wk =   0.0039062
        k(   48) = (   0.0000000  -0.3750000  -0.1250000), wk =   0.0039062
        k(   49) = (   0.0000000  -0.2500000   0.0000000), wk =   0.0039062
        k(   50) = (   0.0000000  -0.2500000   0.1250000), wk =   0.0039062
        k(   51) = (   0.0000000  -0.2500000   0.2500000), wk =   0.0039062
        k(   52) = (   0.0000000  -0.2500000   0.3750000), wk =   0.0039062
        k(   53) = (   0.0000000  -0.2500000  -0.5000000), wk =   0.0039062
        k(   54) = (   0.0000000  -0.2500000  -0.3750000), wk =   0.0039062
        k(   55) = (   0.0000000  -0.2500000  -0.2500000), wk =   0.0039062
        k(   56) = (   0.0000000  -0.2500000  -0.1250000), wk =   0.0039062
        k(   57) = (   0.0000000  -0.1250000   0.0000000), wk =   0.0039062
        k(   58) = (   0.0000000  -0.1250000   0.1250000), wk =   0.0039062
        k(   59) = (   0.0000000  -0.1250000   0.2500000), wk =   0.0039062
        k(   60) = (   0.0000000  -0.1250000   0.3750000), wk =   0.0039062
        k(   61) = (   0.0000000  -0.1250000  -0.5000000), wk =   0.0039062
        k(   62) = (   0.0000000  -0.1250000  -0.3750000), wk =   0.0039062
        k(   63) = (   0.0000000  -0.1250000  -0.2500000), wk =   0.0039062
        k(   64) = (   0.0000000  -0.1250000  -0.1250000), wk =   0.0039062
        k(   65) = (   0.1250000   0.0000000   0.0000000), wk =   0.0039062
        k(   66) = (   0.1250000   0.0000000   0.1250000), wk =   0.0039062
        k(   67) = (   0.1250000   0.0000000   0.2500000), wk =   0.0039062
        k(   68) = (   0.1250000   0.0000000   0.3750000), wk =   0.0039062
        k(   69) = (   0.1250000   0.0000000  -0.5000000), wk =   0.0039062
        k(   70) = (   0.1250000   0.0000000  -0.3750000), wk =   0.0039062
        k(   71) = (   0.1250000   0.0000000  -0.2500000), wk =   0.0039062
        k(   72) = (   0.1250000   0.0000000  -0.1250000), wk =   0.0039062
        k(   73) = (   0.1250000   0.1250000   0.0000000), wk =   0.0039062
        k(   74) = (   0.1250000   0.1250000   0.1250000), wk =   0.0039062
        k(   75) = (   0.1250000   0.1250000   0.2500000), wk =   0.0039062
        k(   76) = (   0.1250000   0.1250000   0.3750000), wk =   0.0039062
        k(   77) = (   0.1250000   0.1250000  -0.5000000), wk =   0.0039062
        k(   78) = (   0.1250000   0.1250000  -0.3750000), wk =   0.0039062
        k(   79) = (   0.1250000   0.1250000  -0.2500000), wk =   0.0039062
        k(   80) = (   0.1250000   0.1250000  -0.1250000), wk =   0.0039062
        k(   81) = (   0.1250000   0.2500000   0.0000000), wk =   0.0039062
        k(   82) = (   0.1250000   0.2500000   0.1250000), wk =   0.0039062
        k(   83) = (   0.1250000   0.2500000   0.2500000), wk =   0.0039062
        k(   84) = (   0.1250000   0.2500000   0.3750000), wk =   0.0039062
        k(   85) = (   0.1250000   0.2500000  -0.5000000), wk =   0.0039062
        k(   86) = (   0.1250000   0.2500000  -0.3750000), wk =   0.0039062
        k(   87) = (   0.1250000   0.2500000  -0.2500000), wk =   0.0039062
        k(   88) = (   0.1250000   0.2500000  -0.1250000), wk =   0.0039062
        k(   89) = (   0.1250000   0.3750000   0.0000000), wk =   0.0039062
        k(   90) = (   0.1250000   0.3750000   0.1250000), wk =   0.0039062
        k(   91) = (   0.1250000   0.3750000   0.2500000), wk =   0.0039062
        k(   92) = (   0.1250000   0.3750000   0.3750000), wk =   0.0039062
        k(   93) = (   0.1250000   0.3750000  -0.5000000), wk =   0.0039062
        k(   94) = (   0.1250000   0.3750000  -0.3750000), wk =   0.0039062
        k(   95) = (   0.1250000   0.3750000  -0.2500000), wk =   0.0039062
        k(   96) = (   0.1250000   0.3750000  -0.1250000), wk =   0.0039062
        k(   97) = (   0.1250000  -0.5000000   0.0000000), wk =   0.0039062
        k(   98) = (   0.1250000  -0.5000000   0.1250000), wk =   0.0039062
        k(   99) = (   0.1250000  -0.5000000   0.2500000), wk =   0.0039062
        k(  100) = (   0.1250000  -0.5000000   0.3750000), wk =   0.0039062
        k(  101) = (   0.1250000  -0.5000000  -0.5000000), wk =   0.0039062
        k(  102) = (   0.1250000  -0.5000000  -0.3750000), wk =   0.0039062
        k(  103) = (   0.1250000  -0.5000000  -0.2500000), wk =   0.0039062
        k(  104) = (   0.1250000  -0.5000000  -0.1250000), wk =   0.0039062
        k(  105) = (   0.1250000  -0.3750000   0.0000000), wk =   0.0039062
        k(  106) = (   0.1250000  -0.3750000   0.1250000), wk =   0.0039062
        k(  107) = (   0.1250000  -0.3750000   0.2500000), wk =   0.0039062
        k(  108) = (   0.1250000  -0.3750000   0.3750000), wk =   0.0039062
        k(  109) = (   0.1250000  -0.3750000  -0.5000000), wk =   0.0039062
        k(  110) = (   0.1250000  -0.3750000  -0.3750000), wk =   0.0039062
        k(  111) = (   0.1250000  -0.3750000  -0.2500000), wk =   0.0039062
        k(  112) = (   0.1250000  -0.3750000  -0.1250000), wk =   0.0039062
        k(  113) = (   0.1250000  -0.2500000   0.0000000), wk =   0.0039062
        k(  114) = (   0.1250000  -0.2500000   0.1250000), wk =   0.0039062
        k(  115) = (   0.1250000  -0.2500000   0.2500000), wk =   0.0039062
        k(  116) = (   0.1250000  -0.2500000   0.3750000), wk =   0.0039062
        k(  117) = (   0.1250000  -0.2500000  -0.5000000), wk =   0.0039062
        k(  118) = (   0.1250000  -0.2500000  -0.3750000), wk =   0.0039062
        k(  119) = (   0.1250000  -0.2500000  -0.2500000), wk =   0.0039062
        k(  120) = (   0.1250000  -0.2500000  -0.1250000), wk =   0.0039062
        k(  121) = (   0.1250000  -0.1250000   0.0000000), wk =   0.0039062
        k(  122) = (   0.1250000  -0.1250000   0.1250000), wk =   0.0039062
        k(  123) = (   0.1250000  -0.1250000   0.2500000), wk =   0.0039062
        k(  124) = (   0.1250000  -0.1250000   0.3750000), wk =   0.0039062
        k(  125) = (   0.1250000  -0.1250000  -0.5000000), wk =   0.0039062
        k(  126) = (   0.1250000  -0.1250000  -0.3750000), wk =   0.0039062
        k(  127) = (   0.1250000  -0.1250000  -0.2500000), wk =   0.0039062
        k(  128) = (   0.1250000  -0.1250000  -0.1250000), wk =   0.0039062
        k(  129) = (   0.2500000   0.0000000   0.0000000), wk =   0.0039062
        k(  130) = (   0.2500000   0.0000000   0.1250000), wk =   0.0039062
        k(  131) = (   0.2500000   0.0000000   0.2500000), wk =   0.0039062
        k(  132) = (   0.2500000   0.0000000   0.3750000), wk =   0.0039062
        k(  133) = (   0.2500000   0.0000000  -0.5000000), wk =   0.0039062
        k(  134) = (   0.2500000   0.0000000  -0.3750000), wk =   0.0039062
        k(  135) = (   0.2500000   0.0000000  -0.2500000), wk =   0.0039062
        k(  136) = (   0.2500000   0.0000000  -0.1250000), wk =   0.0039062
        k(  137) = (   0.2500000   0.1250000   0.0000000), wk =   0.0039062
        k(  138) = (   0.2500000   0.1250000   0.1250000), wk =   0.0039062
        k(  139) = (   0.2500000   0.1250000   0.2500000), wk =   0.0039062
        k(  140) = (   0.2500000   0.1250000   0.3750000), wk =   0.0039062
        k(  141) = (   0.2500000   0.1250000  -0.5000000), wk =   0.0039062
        k(  142) = (   0.2500000   0.1250000  -0.3750000), wk =   0.0039062
        k(  143) = (   0.2500000   0.1250000  -0.2500000), wk =   0.0039062
        k(  144) = (   0.2500000   0.1250000  -0.1250000), wk =   0.0039062
        k(  145) = (   0.2500000   0.2500000   0.0000000), wk =   0.0039062
        k(  146) = (   0.2500000   0.2500000   0.1250000), wk =   0.0039062
        k(  147) = (   0.2500000   0.2500000   0.2500000), wk =   0.0039062
        k(  148) = (   0.2500000   0.2500000   0.3750000), wk =   0.0039062
        k(  149) = (   0.2500000   0.2500000  -0.5000000), wk =   0.0039062
        k(  150) = (   0.2500000   0.2500000  -0.3750000), wk =   0.0039062
        k(  151) = (   0.2500000   0.2500000  -0.2500000), wk =   0.0039062
        k(  152) = (   0.2500000   0.2500000  -0.1250000), wk =   0.0039062
        k(  153) = (   0.2500000   0.3750000   0.0000000), wk =   0.0039062
        k(  154) = (   0.2500000   0.3750000   0.1250000), wk =   0.0039062
        k(  155) = (   0.2500000   0.3750000   0.2500000), wk =   0.0039062
        k(  156) = (   0.2500000   0.3750000   0.3750000), wk =   0.0039062
        k(  157) = (   0.2500000   0.3750000  -0.5000000), wk =   0.0039062
        k(  158) = (   0.2500000   0.3750000  -0.3750000), wk =   0.0039062
        k(  159) = (   0.2500000   0.3750000  -0.2500000), wk =   0.0039062
        k(  160) = (   0.2500000   0.3750000  -0.1250000), wk =   0.0039062
        k(  161) = (   0.2500000  -0.5000000   0.0000000), wk =   0.0039062
        k(  162) = (   0.2500000  -0.5000000   0.1250000), wk =   0.0039062
        k(  163) = (   0.2500000  -0.5000000   0.2500000), wk =   0.0039062
        k(  164) = (   0.2500000  -0.5000000   0.3750000), wk =   0.0039062
        k(  165) = (   0.2500000  -0.5000000  -0.5000000), wk =   0.0039062
        k(  166) = (   0.2500000  -0.5000000  -0.3750000), wk =   0.0039062
        k(  167) = (   0.2500000  -0.5000000  -0.2500000), wk =   0.0039062
        k(  168) = (   0.2500000  -0.5000000  -0.1250000), wk =   0.0039062
        k(  169) = (   0.2500000  -0.3750000   0.0000000), wk =   0.0039062
        k(  170) = (   0.2500000  -0.3750000   0.1250000), wk =   0.0039062
        k(  171) = (   0.2500000  -0.3750000   0.2500000), wk =   0.0039062
        k(  172) = (   0.2500000  -0.3750000   0.3750000), wk =   0.0039062
        k(  173) = (   0.2500000  -0.3750000  -0.5000000), wk =   0.0039062
        k(  174) = (   0.2500000  -0.3750000  -0.3750000), wk =   0.0039062
        k(  175) = (   0.2500000  -0.3750000  -0.2500000), wk =   0.0039062
        k(  176) = (   0.2500000  -0.3750000  -0.1250000), wk =   0.0039062
        k(  177) = (   0.2500000  -0.2500000   0.0000000), wk =   0.0039062
        k(  178) = (   0.2500000  -0.2500000   0.1250000), wk =   0.0039062
        k(  179) = (   0.2500000  -0.2500000   0.2500000), wk =   0.0039062
        k(  180) = (   0.2500000  -0.2500000   0.3750000), wk =   0.0039062
        k(  181) = (   0.2500000  -0.2500000  -0.5000000), wk =   0.0039062
        k(  182) = (   0.2500000  -0.2500000  -0.3750000), wk =   0.0039062
        k(  183) = (   0.2500000  -0.2500000  -0.2500000), wk =   0.0039062
        k(  184) = (   0.2500000  -0.2500000  -0.1250000), wk =   0.0039062
        k(  185) = (   0.2500000  -0.1250000   0.0000000), wk =   0.0039062
        k(  186) = (   0.2500000  -0.1250000   0.1250000), wk =   0.0039062
        k(  187) = (   0.2500000  -0.1250000   0.2500000), wk =   0.0039062
        k(  188) = (   0.2500000  -0.1250000   0.3750000), wk =   0.0039062
        k(  189) = (   0.2500000  -0.1250000  -0.5000000), wk =   0.0039062
        k(  190) = (   0.2500000  -0.1250000  -0.3750000), wk =   0.0039062
        k(  191) = (   0.2500000  -0.1250000  -0.2500000), wk =   0.0039062
        k(  192) = (   0.2500000  -0.1250000  -0.1250000), wk =   0.0039062
        k(  193) = (   0.3750000   0.0000000   0.0000000), wk =   0.0039062
        k(  194) = (   0.3750000   0.0000000   0.1250000), wk =   0.0039062
        k(  195) = (   0.3750000   0.0000000   0.2500000), wk =   0.0039062
        k(  196) = (   0.3750000   0.0000000   0.3750000), wk =   0.0039062
        k(  197) = (   0.3750000   0.0000000  -0.5000000), wk =   0.0039062
        k(  198) = (   0.3750000   0.0000000  -0.3750000), wk =   0.0039062
        k(  199) = (   0.3750000   0.0000000  -0.2500000), wk =   0.0039062
        k(  200) = (   0.3750000   0.0000000  -0.1250000), wk =   0.0039062
        k(  201) = (   0.3750000   0.1250000   0.0000000), wk =   0.0039062
        k(  202) = (   0.3750000   0.1250000   0.1250000), wk =   0.0039062
        k(  203) = (   0.3750000   0.1250000   0.2500000), wk =   0.0039062
        k(  204) = (   0.3750000   0.1250000   0.3750000), wk =   0.0039062
        k(  205) = (   0.3750000   0.1250000  -0.5000000), wk =   0.0039062
        k(  206) = (   0.3750000   0.1250000  -0.3750000), wk =   0.0039062
        k(  207) = (   0.3750000   0.1250000  -0.2500000), wk =   0.0039062
        k(  208) = (   0.3750000   0.1250000  -0.1250000), wk =   0.0039062
        k(  209) = (   0.3750000   0.2500000   0.0000000), wk =   0.0039062
        k(  210) = (   0.3750000   0.2500000   0.1250000), wk =   0.0039062
        k(  211) = (   0.3750000   0.2500000   0.2500000), wk =   0.0039062
        k(  212) = (   0.3750000   0.2500000   0.3750000), wk =   0.0039062
        k(  213) = (   0.3750000   0.2500000  -0.5000000), wk =   0.0039062
        k(  214) = (   0.3750000   0.2500000  -0.3750000), wk =   0.0039062
        k(  215) = (   0.3750000   0.2500000  -0.2500000), wk =   0.0039062
        k(  216) = (   0.3750000   0.2500000  -0.1250000), wk =   0.0039062
        k(  217) = (   0.3750000   0.3750000   0.0000000), wk =   0.0039062
        k(  218) = (   0.3750000   0.3750000   0.1250000), wk =   0.0039062
        k(  219) = (   0.3750000   0.3750000   0.2500000), wk =   0.0039062
        k(  220) = (   0.3750000   0.3750000   0.3750000), wk =   0.0039062
        k(  221) = (   0.3750000   0.3750000  -0.5000000), wk =   0.0039062
        k(  222) = (   0.3750000   0.3750000  -0.3750000), wk =   0.0039062
        k(  223) = (   0.3750000   0.3750000  -0.2500000), wk =   0.0039062
        k(  224) = (   0.3750000   0.3750000  -0.1250000), wk =   0.0039062
        k(  225) = (   0.3750000  -0.5000000   0.0000000), wk =   0.0039062
        k(  226) = (   0.3750000  -0.5000000   0.1250000), wk =   0.0039062
        k(  227) = (   0.3750000  -0.5000000   0.2500000), wk =   0.0039062
        k(  228) = (   0.3750000  -0.5000000   0.3750000), wk =   0.0039062
        k(  229) = (   0.3750000  -0.5000000  -0.5000000), wk =   0.0039062
        k(  230) = (   0.3750000  -0.5000000  -0.3750000), wk =   0.0039062
        k(  231) = (   0.3750000  -0.5000000  -0.2500000), wk =   0.0039062
        k(  232) = (   0.3750000  -0.5000000  -0.1250000), wk =   0.0039062
        k(  233) = (   0.3750000  -0.3750000   0.0000000), wk =   0.0039062
        k(  234) = (   0.3750000  -0.3750000   0.1250000), wk =   0.0039062
        k(  235) = (   0.3750000  -0.3750000   0.2500000), wk =   0.0039062
        k(  236) = (   0.3750000  -0.3750000   0.3750000), wk =   0.0039062
        k(  237) = (   0.3750000  -0.3750000  -0.5000000), wk =   0.0039062
        k(  238) = (   0.3750000  -0.3750000  -0.3750000), wk =   0.0039062
        k(  239) = (   0.3750000  -0.3750000  -0.2500000), wk =   0.0039062
        k(  240) = (   0.3750000  -0.3750000  -0.1250000), wk =   0.0039062
        k(  241) = (   0.3750000  -0.2500000   0.0000000), wk =   0.0039062
        k(  242) = (   0.3750000  -0.2500000   0.1250000), wk =   0.0039062
        k(  243) = (   0.3750000  -0.2500000   0.2500000), wk =   0.0039062
        k(  244) = (   0.3750000  -0.2500000   0.3750000), wk =   0.0039062
        k(  245) = (   0.3750000  -0.2500000  -0.5000000), wk =   0.0039062
        k(  246) = (   0.3750000  -0.2500000  -0.3750000), wk =   0.0039062
        k(  247) = (   0.3750000  -0.2500000  -0.2500000), wk =   0.0039062
        k(  248) = (   0.3750000  -0.2500000  -0.1250000), wk =   0.0039062
        k(  249) = (   0.3750000  -0.1250000   0.0000000), wk =   0.0039062
        k(  250) = (   0.3750000  -0.1250000   0.1250000), wk =   0.0039062
        k(  251) = (   0.3750000  -0.1250000   0.2500000), wk =   0.0039062
        k(  252) = (   0.3750000  -0.1250000   0.3750000), wk =   0.0039062
        k(  253) = (   0.3750000  -0.1250000  -0.5000000), wk =   0.0039062
        k(  254) = (   0.3750000  -0.1250000  -0.3750000), wk =   0.0039062
        k(  255) = (   0.3750000  -0.1250000  -0.2500000), wk =   0.0039062
        k(  256) = (   0.3750000  -0.1250000  -0.1250000), wk =   0.0039062
        k(  257) = (  -0.5000000   0.0000000   0.0000000), wk =   0.0039062
        k(  258) = (  -0.5000000   0.0000000   0.1250000), wk =   0.0039062
        k(  259) = (  -0.5000000   0.0000000   0.2500000), wk =   0.0039062
        k(  260) = (  -0.5000000   0.0000000   0.3750000), wk =   0.0039062
        k(  261) = (  -0.5000000   0.0000000  -0.5000000), wk =   0.0039062
        k(  262) = (  -0.5000000   0.0000000  -0.3750000), wk =   0.0039062
        k(  263) = (  -0.5000000   0.0000000  -0.2500000), wk =   0.0039062
        k(  264) = (  -0.5000000   0.0000000  -0.1250000), wk =   0.0039062
        k(  265) = (  -0.5000000   0.1250000   0.0000000), wk =   0.0039062
        k(  266) = (  -0.5000000   0.1250000   0.1250000), wk =   0.0039062
        k(  267) = (  -0.5000000   0.1250000   0.2500000), wk =   0.0039062
        k(  268) = (  -0.5000000   0.1250000   0.3750000), wk =   0.0039062
        k(  269) = (  -0.5000000   0.1250000  -0.5000000), wk =   0.0039062
        k(  270) = (  -0.5000000   0.1250000  -0.3750000), wk =   0.0039062
        k(  271) = (  -0.5000000   0.1250000  -0.2500000), wk =   0.0039062
        k(  272) = (  -0.5000000   0.1250000  -0.1250000), wk =   0.0039062
        k(  273) = (  -0.5000000   0.2500000   0.0000000), wk =   0.0039062
        k(  274) = (  -0.5000000   0.2500000   0.1250000), wk =   0.0039062
        k(  275) = (  -0.5000000   0.2500000   0.2500000), wk =   0.0039062
        k(  276) = (  -0.5000000   0.2500000   0.3750000), wk =   0.0039062
        k(  277) = (  -0.5000000   0.2500000  -0.5000000), wk =   0.0039062
        k(  278) = (  -0.5000000   0.2500000  -0.3750000), wk =   0.0039062
        k(  279) = (  -0.5000000   0.2500000  -0.2500000), wk =   0.0039062
        k(  280) = (  -0.5000000   0.2500000  -0.1250000), wk =   0.0039062
        k(  281) = (  -0.5000000   0.3750000   0.0000000), wk =   0.0039062
        k(  282) = (  -0.5000000   0.3750000   0.1250000), wk =   0.0039062
        k(  283) = (  -0.5000000   0.3750000   0.2500000), wk =   0.0039062
        k(  284) = (  -0.5000000   0.3750000   0.3750000), wk =   0.0039062
        k(  285) = (  -0.5000000   0.3750000  -0.5000000), wk =   0.0039062
        k(  286) = (  -0.5000000   0.3750000  -0.3750000), wk =   0.0039062
        k(  287) = (  -0.5000000   0.3750000  -0.2500000), wk =   0.0039062
        k(  288) = (  -0.5000000   0.3750000  -0.1250000), wk =   0.0039062
        k(  289) = (  -0.5000000  -0.5000000   0.0000000), wk =   0.0039062
        k(  290) = (  -0.5000000  -0.5000000   0.1250000), wk =   0.0039062
        k(  291) = (  -0.5000000  -0.5000000   0.2500000), wk =   0.0039062
        k(  292) = (  -0.5000000  -0.5000000   0.3750000), wk =   0.0039062
        k(  293) = (  -0.5000000  -0.5000000  -0.5000000), wk =   0.0039062
        k(  294) = (  -0.5000000  -0.5000000  -0.3750000), wk =   0.0039062
        k(  295) = (  -0.5000000  -0.5000000  -0.2500000), wk =   0.0039062
        k(  296) = (  -0.5000000  -0.5000000  -0.1250000), wk =   0.0039062
        k(  297) = (  -0.5000000  -0.3750000   0.0000000), wk =   0.0039062
        k(  298) = (  -0.5000000  -0.3750000   0.1250000), wk =   0.0039062
        k(  299) = (  -0.5000000  -0.3750000   0.2500000), wk =   0.0039062
        k(  300) = (  -0.5000000  -0.3750000   0.3750000), wk =   0.0039062
        k(  301) = (  -0.5000000  -0.3750000  -0.5000000), wk =   0.0039062
        k(  302) = (  -0.5000000  -0.3750000  -0.3750000), wk =   0.0039062
        k(  303) = (  -0.5000000  -0.3750000  -0.2500000), wk =   0.0039062
        k(  304) = (  -0.5000000  -0.3750000  -0.1250000), wk =   0.0039062
        k(  305) = (  -0.5000000  -0.2500000   0.0000000), wk =   0.0039062
        k(  306) = (  -0.5000000  -0.2500000   0.1250000), wk =   0.0039062
        k(  307) = (  -0.5000000  -0.2500000   0.2500000), wk =   0.0039062
        k(  308) = (  -0.5000000  -0.2500000   0.3750000), wk =   0.0039062
        k(  309) = (  -0.5000000  -0.2500000  -0.5000000), wk =   0.0039062
        k(  310) = (  -0.5000000  -0.2500000  -0.3750000), wk =   0.0039062
        k(  311) = (  -0.5000000  -0.2500000  -0.2500000), wk =   0.0039062
        k(  312) = (  -0.5000000  -0.2500000  -0.1250000), wk =   0.0039062
        k(  313) = (  -0.5000000  -0.1250000   0.0000000), wk =   0.0039062
        k(  314) = (  -0.5000000  -0.1250000   0.1250000), wk =   0.0039062
        k(  315) = (  -0.5000000  -0.1250000   0.2500000), wk =   0.0039062
        k(  316) = (  -0.5000000  -0.1250000   0.3750000), wk =   0.0039062
        k(  317) = (  -0.5000000  -0.1250000  -0.5000000), wk =   0.0039062
        k(  318) = (  -0.5000000  -0.1250000  -0.3750000), wk =   0.0039062
        k(  319) = (  -0.5000000  -0.1250000  -0.2500000), wk =   0.0039062
        k(  320) = (  -0.5000000  -0.1250000  -0.1250000), wk =   0.0039062
        k(  321) = (  -0.3750000   0.0000000   0.0000000), wk =   0.0039062
        k(  322) = (  -0.3750000   0.0000000   0.1250000), wk =   0.0039062
        k(  323) = (  -0.3750000   0.0000000   0.2500000), wk =   0.0039062
        k(  324) = (  -0.3750000   0.0000000   0.3750000), wk =   0.0039062
        k(  325) = (  -0.3750000   0.0000000  -0.5000000), wk =   0.0039062
        k(  326) = (  -0.3750000   0.0000000  -0.3750000), wk =   0.0039062
        k(  327) = (  -0.3750000   0.0000000  -0.2500000), wk =   0.0039062
        k(  328) = (  -0.3750000   0.0000000  -0.1250000), wk =   0.0039062
        k(  329) = (  -0.3750000   0.1250000   0.0000000), wk =   0.0039062
        k(  330) = (  -0.3750000   0.1250000   0.1250000), wk =   0.0039062
        k(  331) = (  -0.3750000   0.1250000   0.2500000), wk =   0.0039062
        k(  332) = (  -0.3750000   0.1250000   0.3750000), wk =   0.0039062
        k(  333) = (  -0.3750000   0.1250000  -0.5000000), wk =   0.0039062
        k(  334) = (  -0.3750000   0.1250000  -0.3750000), wk =   0.0039062
        k(  335) = (  -0.3750000   0.1250000  -0.2500000), wk =   0.0039062
        k(  336) = (  -0.3750000   0.1250000  -0.1250000), wk =   0.0039062
        k(  337) = (  -0.3750000   0.2500000   0.0000000), wk =   0.0039062
        k(  338) = (  -0.3750000   0.2500000   0.1250000), wk =   0.0039062
        k(  339) = (  -0.3750000   0.2500000   0.2500000), wk =   0.0039062
        k(  340) = (  -0.3750000   0.2500000   0.3750000), wk =   0.0039062
        k(  341) = (  -0.3750000   0.2500000  -0.5000000), wk =   0.0039062
        k(  342) = (  -0.3750000   0.2500000  -0.3750000), wk =   0.0039062
        k(  343) = (  -0.3750000   0.2500000  -0.2500000), wk =   0.0039062
        k(  344) = (  -0.3750000   0.2500000  -0.1250000), wk =   0.0039062
        k(  345) = (  -0.3750000   0.3750000   0.0000000), wk =   0.0039062
        k(  346) = (  -0.3750000   0.3750000   0.1250000), wk =   0.0039062
        k(  347) = (  -0.3750000   0.3750000   0.2500000), wk =   0.0039062
        k(  348) = (  -0.3750000   0.3750000   0.3750000), wk =   0.0039062
        k(  349) = (  -0.3750000   0.3750000  -0.5000000), wk =   0.0039062
        k(  350) = (  -0.3750000   0.3750000  -0.3750000), wk =   0.0039062
        k(  351) = (  -0.3750000   0.3750000  -0.2500000), wk =   0.0039062
        k(  352) = (  -0.3750000   0.3750000  -0.1250000), wk =   0.0039062
        k(  353) = (  -0.3750000  -0.5000000   0.0000000), wk =   0.0039062
        k(  354) = (  -0.3750000  -0.5000000   0.1250000), wk =   0.0039062
        k(  355) = (  -0.3750000  -0.5000000   0.2500000), wk =   0.0039062
        k(  356) = (  -0.3750000  -0.5000000   0.3750000), wk =   0.0039062
        k(  357) = (  -0.3750000  -0.5000000  -0.5000000), wk =   0.0039062
        k(  358) = (  -0.3750000  -0.5000000  -0.3750000), wk =   0.0039062
        k(  359) = (  -0.3750000  -0.5000000  -0.2500000), wk =   0.0039062
        k(  360) = (  -0.3750000  -0.5000000  -0.1250000), wk =   0.0039062
        k(  361) = (  -0.3750000  -0.3750000   0.0000000), wk =   0.0039062
        k(  362) = (  -0.3750000  -0.3750000   0.1250000), wk =   0.0039062
        k(  363) = (  -0.3750000  -0.3750000   0.2500000), wk =   0.0039062
        k(  364) = (  -0.3750000  -0.3750000   0.3750000), wk =   0.0039062
        k(  365) = (  -0.3750000  -0.3750000  -0.5000000), wk =   0.0039062
        k(  366) = (  -0.3750000  -0.3750000  -0.3750000), wk =   0.0039062
        k(  367) = (  -0.3750000  -0.3750000  -0.2500000), wk =   0.0039062
        k(  368) = (  -0.3750000  -0.3750000  -0.1250000), wk =   0.0039062
        k(  369) = (  -0.3750000  -0.2500000   0.0000000), wk =   0.0039062
        k(  370) = (  -0.3750000  -0.2500000   0.1250000), wk =   0.0039062
        k(  371) = (  -0.3750000  -0.2500000   0.2500000), wk =   0.0039062
        k(  372) = (  -0.3750000  -0.2500000   0.3750000), wk =   0.0039062
        k(  373) = (  -0.3750000  -0.2500000  -0.5000000), wk =   0.0039062
        k(  374) = (  -0.3750000  -0.2500000  -0.3750000), wk =   0.0039062
        k(  375) = (  -0.3750000  -0.2500000  -0.2500000), wk =   0.0039062
        k(  376) = (  -0.3750000  -0.2500000  -0.1250000), wk =   0.0039062
        k(  377) = (  -0.3750000  -0.1250000   0.0000000), wk =   0.0039062
        k(  378) = (  -0.3750000  -0.1250000   0.1250000), wk =   0.0039062
        k(  379) = (  -0.3750000  -0.1250000   0.2500000), wk =   0.0039062
        k(  380) = (  -0.3750000  -0.1250000   0.3750000), wk =   0.0039062
        k(  381) = (  -0.3750000  -0.1250000  -0.5000000), wk =   0.0039062
        k(  382) = (  -0.3750000  -0.1250000  -0.3750000), wk =   0.0039062
        k(  383) = (  -0.3750000  -0.1250000  -0.2500000), wk =   0.0039062
        k(  384) = (  -0.3750000  -0.1250000  -0.1250000), wk =   0.0039062
        k(  385) = (  -0.2500000   0.0000000   0.0000000), wk =   0.0039062
        k(  386) = (  -0.2500000   0.0000000   0.1250000), wk =   0.0039062
        k(  387) = (  -0.2500000   0.0000000   0.2500000), wk =   0.0039062
        k(  388) = (  -0.2500000   0.0000000   0.3750000), wk =   0.0039062
        k(  389) = (  -0.2500000   0.0000000  -0.5000000), wk =   0.0039062
        k(  390) = (  -0.2500000   0.0000000  -0.3750000), wk =   0.0039062
        k(  391) = (  -0.2500000   0.0000000  -0.2500000), wk =   0.0039062
        k(  392) = (  -0.2500000   0.0000000  -0.1250000), wk =   0.0039062
        k(  393) = (  -0.2500000   0.1250000   0.0000000), wk =   0.0039062
        k(  394) = (  -0.2500000   0.1250000   0.1250000), wk =   0.0039062
        k(  395) = (  -0.2500000   0.1250000   0.2500000), wk =   0.0039062
        k(  396) = (  -0.2500000   0.1250000   0.3750000), wk =   0.0039062
        k(  397) = (  -0.2500000   0.1250000  -0.5000000), wk =   0.0039062
        k(  398) = (  -0.2500000   0.1250000  -0.3750000), wk =   0.0039062
        k(  399) = (  -0.2500000   0.1250000  -0.2500000), wk =   0.0039062
        k(  400) = (  -0.2500000   0.1250000  -0.1250000), wk =   0.0039062
        k(  401) = (  -0.2500000   0.2500000   0.0000000), wk =   0.0039062
        k(  402) = (  -0.2500000   0.2500000   0.1250000), wk =   0.0039062
        k(  403) = (  -0.2500000   0.2500000   0.2500000), wk =   0.0039062
        k(  404) = (  -0.2500000   0.2500000   0.3750000), wk =   0.0039062
        k(  405) = (  -0.2500000   0.2500000  -0.5000000), wk =   0.0039062
        k(  406) = (  -0.2500000   0.2500000  -0.3750000), wk =   0.0039062
        k(  407) = (  -0.2500000   0.2500000  -0.2500000), wk =   0.0039062
        k(  408) = (  -0.2500000   0.2500000  -0.1250000), wk =   0.0039062
        k(  409) = (  -0.2500000   0.3750000   0.0000000), wk =   0.0039062
        k(  410) = (  -0.2500000   0.3750000   0.1250000), wk =   0.0039062
        k(  411) = (  -0.2500000   0.3750000   0.2500000), wk =   0.0039062
        k(  412) = (  -0.2500000   0.3750000   0.3750000), wk =   0.0039062
        k(  413) = (  -0.2500000   0.3750000  -0.5000000), wk =   0.0039062
        k(  414) = (  -0.2500000   0.3750000  -0.3750000), wk =   0.0039062
        k(  415) = (  -0.2500000   0.3750000  -0.2500000), wk =   0.0039062
        k(  416) = (  -0.2500000   0.3750000  -0.1250000), wk =   0.0039062
        k(  417) = (  -0.2500000  -0.5000000   0.0000000), wk =   0.0039062
        k(  418) = (  -0.2500000  -0.5000000   0.1250000), wk =   0.0039062
        k(  419) = (  -0.2500000  -0.5000000   0.2500000), wk =   0.0039062
        k(  420) = (  -0.2500000  -0.5000000   0.3750000), wk =   0.0039062
        k(  421) = (  -0.2500000  -0.5000000  -0.5000000), wk =   0.0039062
        k(  422) = (  -0.2500000  -0.5000000  -0.3750000), wk =   0.0039062
        k(  423) = (  -0.2500000  -0.5000000  -0.2500000), wk =   0.0039062
        k(  424) = (  -0.2500000  -0.5000000  -0.1250000), wk =   0.0039062
        k(  425) = (  -0.2500000  -0.3750000   0.0000000), wk =   0.0039062
        k(  426) = (  -0.2500000  -0.3750000   0.1250000), wk =   0.0039062
        k(  427) = (  -0.2500000  -0.3750000   0.2500000), wk =   0.0039062
        k(  428) = (  -0.2500000  -0.3750000   0.3750000), wk =   0.0039062
        k(  429) = (  -0.2500000  -0.3750000  -0.5000000), wk =   0.0039062
        k(  430) = (  -0.2500000  -0.3750000  -0.3750000), wk =   0.0039062
        k(  431) = (  -0.2500000  -0.3750000  -0.2500000), wk =   0.0039062
        k(  432) = (  -0.2500000  -0.3750000  -0.1250000), wk =   0.0039062
        k(  433) = (  -0.2500000  -0.2500000   0.0000000), wk =   0.0039062
        k(  434) = (  -0.2500000  -0.2500000   0.1250000), wk =   0.0039062
        k(  435) = (  -0.2500000  -0.2500000   0.2500000), wk =   0.0039062
        k(  436) = (  -0.2500000  -0.2500000   0.3750000), wk =   0.0039062
        k(  437) = (  -0.2500000  -0.2500000  -0.5000000), wk =   0.0039062
        k(  438) = (  -0.2500000  -0.2500000  -0.3750000), wk =   0.0039062
        k(  439) = (  -0.2500000  -0.2500000  -0.2500000), wk =   0.0039062
        k(  440) = (  -0.2500000  -0.2500000  -0.1250000), wk =   0.0039062
        k(  441) = (  -0.2500000  -0.1250000   0.0000000), wk =   0.0039062
        k(  442) = (  -0.2500000  -0.1250000   0.1250000), wk =   0.0039062
        k(  443) = (  -0.2500000  -0.1250000   0.2500000), wk =   0.0039062
        k(  444) = (  -0.2500000  -0.1250000   0.3750000), wk =   0.0039062
        k(  445) = (  -0.2500000  -0.1250000  -0.5000000), wk =   0.0039062
        k(  446) = (  -0.2500000  -0.1250000  -0.3750000), wk =   0.0039062
        k(  447) = (  -0.2500000  -0.1250000  -0.2500000), wk =   0.0039062
        k(  448) = (  -0.2500000  -0.1250000  -0.1250000), wk =   0.0039062
        k(  449) = (  -0.1250000   0.0000000   0.0000000), wk =   0.0039062
        k(  450) = (  -0.1250000   0.0000000   0.1250000), wk =   0.0039062
        k(  451) = (  -0.1250000   0.0000000   0.2500000), wk =   0.0039062
        k(  452) = (  -0.1250000   0.0000000   0.3750000), wk =   0.0039062
        k(  453) = (  -0.1250000   0.0000000  -0.5000000), wk =   0.0039062
        k(  454) = (  -0.1250000   0.0000000  -0.3750000), wk =   0.0039062
        k(  455) = (  -0.1250000   0.0000000  -0.2500000), wk =   0.0039062
        k(  456) = (  -0.1250000   0.0000000  -0.1250000), wk =   0.0039062
        k(  457) = (  -0.1250000   0.1250000   0.0000000), wk =   0.0039062
        k(  458) = (  -0.1250000   0.1250000   0.1250000), wk =   0.0039062
        k(  459) = (  -0.1250000   0.1250000   0.2500000), wk =   0.0039062
        k(  460) = (  -0.1250000   0.1250000   0.3750000), wk =   0.0039062
        k(  461) = (  -0.1250000   0.1250000  -0.5000000), wk =   0.0039062
        k(  462) = (  -0.1250000   0.1250000  -0.3750000), wk =   0.0039062
        k(  463) = (  -0.1250000   0.1250000  -0.2500000), wk =   0.0039062
        k(  464) = (  -0.1250000   0.1250000  -0.1250000), wk =   0.0039062
        k(  465) = (  -0.1250000   0.2500000   0.0000000), wk =   0.0039062
        k(  466) = (  -0.1250000   0.2500000   0.1250000), wk =   0.0039062
        k(  467) = (  -0.1250000   0.2500000   0.2500000), wk =   0.0039062
        k(  468) = (  -0.1250000   0.2500000   0.3750000), wk =   0.0039062
        k(  469) = (  -0.1250000   0.2500000  -0.5000000), wk =   0.0039062
        k(  470) = (  -0.1250000   0.2500000  -0.3750000), wk =   0.0039062
        k(  471) = (  -0.1250000   0.2500000  -0.2500000), wk =   0.0039062
        k(  472) = (  -0.1250000   0.2500000  -0.1250000), wk =   0.0039062
        k(  473) = (  -0.1250000   0.3750000   0.0000000), wk =   0.0039062
        k(  474) = (  -0.1250000   0.3750000   0.1250000), wk =   0.0039062
[...]

     occupation numbers 
     1.0000   1.0000   1.0000   1.0000   0.0000   0.0000   0.0000   0.0000
     0.0000   0.0000   0.0000   0.0000   0.0000   0.0000   0.0000   0.0000
     0.0000   0.0000   0.0000   0.0000

          k = 0.1250 0.8750-0.1250 (  2127 PWs)   bands (ev):

    -2.4071  -0.5669   2.8280   3.5855   7.1277   8.2017  14.4915  14.5857
    16.9833  17.0026  18.4952  19.1066  21.1043  21.1756  22.1417  24.9173
    24.9728  25.6158  26.9773  28.4799

     occupation numbers 
     1.0000   1.0000   1.0000   1.0000   0.0000   0.0000   0.0000   0.0000
     0.0000   0.0000   0.0000   0.0000   0.0000   0.0000   0.0000   0.0000
     0.0000   0.0000   0.0000   0.0000

          k = 1.0000 0.0000 0.7500 (  2128 PWs)   bands (ev):

    -1.4759  -1.4759   2.8471   2.8471   8.2058   8.2058  14.0744  14.0744
    16.7864  16.7864  19.0820  19.0820  21.7745  21.7745  23.5663  23.5663
    25.2920  25.2920  27.8179  27.8179

     occupation numbers 
     1.0000   1.0000   1.0000   1.0000   0.0000   0.0000   0.0000   0.0000
     0.0000   0.0000   0.0000   0.0000   0.0000   0.0000   0.0000   0.0000
     0.0000   0.0000   0.0000   0.0000

          k = 0.8750 0.1250 0.6250 (  2132 PWs)   bands (ev):

    -2.2306  -0.6690   2.2009   3.3043   8.6237  10.5129  11.5115  13.6688
    14.6258  17.2883  18.4351  20.5546  21.5529  22.1736  23.7198  24.5688
    24.8785  25.5295  27.2663  27.8935

     occupation numbers 
     1.0000   1.0000   1.0000   1.0000   0.0000   0.0000   0.0000   0.0000
     0.0000   0.0000   0.0000   0.0000   0.0000   0.0000   0.0000   0.0000
     0.0000   0.0000   0.0000   0.0000

          k = 0.7500 0.2500 0.5000 (  2132 PWs)   bands (ev):

    -2.8285  -0.5248   2.8128   4.1072   9.3046   9.3657  12.1427  13.3386
    13.6306  16.7864  17.9171  18.6192  21.7399  21.7610  24.2950  24.6226
    25.6357  26.9773  27.0868  28.1210

     occupation numbers 
     1.0000   1.0000   1.0000   1.0000   0.0000   0.0000   0.0000   0.0000
     0.0000   0.0000   0.0000   0.0000   0.0000   0.0000   0.0000   0.0000
     0.0000   0.0000   0.0000   0.0000

          k = 0.6250 0.3750 0.3750 (  2115 PWs)   bands (ev):

    -3.2809  -0.4872   3.9848   4.7068   8.4310   9.7509  10.3316  13.5998
    15.2222  16.6713  17.7660  17.8599  18.7549  21.2574  24.4912  25.8173
    26.4893  27.2079  28.0263  28.4242

     occupation numbers 
     1.0000   1.0000   1.0000   1.0000   0.0000   0.0000   0.0000   0.0000
     0.0000   0.0000   0.0000   0.0000   0.0000   0.0000   0.0000   0.0000
     0.0000   0.0000   0.0000   0.0000

          k =-0.3750-0.3750-0.6250 (  2115 PWs)   bands (ev):

    -3.2809  -0.4872   3.9848   4.7068   8.4310   9.7509  10.3316  13.5998
    15.2222  16.6713  17.7660  17.8599  18.7549  21.2574  24.4912  25.8173
    26.4893  27.2079  28.0263  28.4242

     occupation numbers 
     1.0000   1.0000   1.0000   1.0000   0.0000   0.0000   0.0000   0.0000
     0.0000   0.0000   0.0000   0.0000   0.0000   0.0000   0.0000   0.0000
     0.0000   0.0000   0.0000   0.0000

          k =-0.5000-0.2500-0.7500 (  2132 PWs)   bands (ev):

    -2.8285  -0.5248   2.8128   4.1072   9.3046   9.3657  12.1427  13.3386
    13.6306  16.7864  17.9171  18.6192  21.7399  21.7610  24.2950  24.6226
    25.6357  26.9773  27.0868  28.1210

     occupation numbers 
     1.0000   1.0000   1.0000   1.0000   0.0000   0.0000   0.0000   0.0000
     0.0000   0.0000   0.0000   0.0000   0.0000   0.0000   0.0000   0.0000
     0.0000   0.0000   0.0000   0.0000

          k =-0.6250-0.1250-0.8750 (  2132 PWs)   bands (ev):

    -2.2306  -0.6690   2.2009   3.3043   8.6237  10.5129  11.5115  13.6688
    14.6258  17.2883  18.4351  20.5546  21.5529  22.1736  23.7198  24.5688
    24.8785  25.5295  27.2663  27.8935

     occupation numbers 
     1.0000   1.0000   1.0000   1.0000   0.0000   0.0000   0.0000   0.0000
     0.0000   0.0000   0.0000   0.0000   0.0000   0.0000   0.0000   0.0000
     0.0000   0.0000   0.0000   0.0000

          k =-0.7500 0.0000-1.0000 (  2128 PWs)   bands (ev):

    -1.4759  -1.4759   2.8471   2.8471   8.2058   8.2058  14.0744  14.0744
    16.7864  16.7864  19.0820  19.0820  21.7745  21.7745  23.5663  23.5663
    25.2920  25.2920  27.8179  27.8179

     occupation numbers 
     1.0000   1.0000   1.0000   1.0000   0.0000   0.0000   0.0000   0.0000
     0.0000   0.0000   0.0000   0.0000   0.0000   0.0000   0.0000   0.0000
     0.0000   0.0000   0.0000   0.0000

          k = 0.1250-0.8750-0.1250 (  2127 PWs)   bands (ev):

    -2.4071  -0.5669   2.8280   3.5855   7.1277   8.2017  14.4915  14.5857
    16.9833  17.0026  18.4952  19.1066  21.1043  21.1756  22.1417  24.9173
    24.9728  25.6158  26.9773  28.4799

     occupation numbers 
     1.0000   1.0000   1.0000   1.0000   0.0000   0.0000   0.0000   0.0000
     0.0000   0.0000   0.0000   0.0000   0.0000   0.0000   0.0000   0.0000
     0.0000   0.0000   0.0000   0.0000

          k = 0.0000-0.7500-0.2500 (  2120 PWs)   bands (ev):

    -3.1062   0.2996   2.9012   3.5057   8.1862   8.8770  11.9876  14.2204
    16.3819  16.4396  19.0959  19.4956  20.4485  20.8596  22.8841  23.2259
    25.7474  26.1397  27.9459  28.0676

     occupation numbers 
     1.0000   1.0000   1.0000   1.0000   0.0000   0.0000   0.0000   0.0000
     0.0000   0.0000   0.0000   0.0000   0.0000   0.0000   0.0000   0.0000
     0.0000   0.0000   0.0000   0.0000

          k =-0.1250-0.6250-0.3750 (  2117 PWs)   bands (ev):

    -3.4816   0.4213   2.9416   4.3371   9.1147   9.7897  11.2505  12.1677
    15.2338  15.9597  18.2123  19.1400  20.4529  21.3330  23.4597  24.4127
    25.1349  27.1547  27.9534  28.9678

     occupation numbers 
     1.0000   1.0000   1.0000   1.0000   0.0000   0.0000   0.0000   0.0000
     0.0000   0.0000   0.0000   0.0000   0.0000   0.0000   0.0000   0.0000
     0.0000   0.0000   0.0000   0.0000

          k =-0.2500-0.5000-0.5000 (  2110 PWs)   bands (ev):

    -3.5258  -0.1161   3.8027   5.0039   8.5983   9.8587  10.1009  14.1547
    14.3032  15.4347  17.4027  18.6532  20.4469  20.9586  23.0602  24.8221
    26.6468  28.3112  28.5062  28.6440

     occupation numbers 
     1.0000   1.0000   1.0000   1.0000   0.0000   0.0000   0.0000   0.0000
     0.0000   0.0000   0.0000   0.0000   0.0000   0.0000   0.0000   0.0000
     0.0000   0.0000   0.0000   0.0000

          k =-0.2500-0.2500-0.5000 (  2116 PWs)   bands (ev):

    -4.1432   0.9774   4.4306   4.6811   8.4860   9.8809  10.6984  11.6940
    15.5192  15.5823  16.1847  19.5860  19.7068  21.3730  22.8837  23.8270
    24.8008  27.9660  28.7530  29.7470

     occupation numbers 
     1.0000   1.0000   1.0000   1.0000   0.0000   0.0000   0.0000   0.0000
     0.0000   0.0000   0.0000   0.0000   0.0000   0.0000   0.0000   0.0000
     0.0000   0.0000   0.0000   0.0000

          k =-0.3750-0.1250-0.6250 (  2117 PWs)   bands (ev):

    -3.4816   0.4213   2.9416   4.3371   9.1147   9.7897  11.2505  12.1677
    15.2338  15.9597  18.2123  19.1400  20.4529  21.3330  23.4597  24.4127
    25.1349  27.1547  27.9534  28.9678

     occupation numbers 
     1.0000   1.0000   1.0000   1.0000   0.0000   0.0000   0.0000   0.0000
     0.0000   0.0000   0.0000   0.0000   0.0000   0.0000   0.0000   0.0000
     0.0000   0.0000   0.0000   0.0000

          k =-0.5000 0.0000-0.7500 (  2128 PWs)   bands (ev):

    -2.5814  -0.3056   2.0336   3.6808   9.1033  10.7798  11.4446  13.2559
    14.1042  15.4602  20.2609  20.5294  20.8458  22.4684  22.7176  24.4942
    25.3243  26.1461  27.2669  28.3144

     occupation numbers 
     1.0000   1.0000   1.0000   1.0000   0.0000   0.0000   0.0000   0.0000
     0.0000   0.0000   0.0000   0.0000   0.0000   0.0000   0.0000   0.0000
     0.0000   0.0000   0.0000   0.0000

          k =-0.6250 0.1250-0.8750 (  2132 PWs)   bands (ev):

    -2.2306  -0.6690   2.2009   3.3043   8.6237  10.5129  11.5115  13.6688
    14.6258  17.2883  18.4351  20.5546  21.5529  22.1736  23.7198  24.5688
    24.8785  25.5295  27.2663  27.8935

     occupation numbers 
     1.0000   1.0000   1.0000   1.0000   0.0000   0.0000   0.0000   0.0000
     0.0000   0.0000   0.0000   0.0000   0.0000   0.0000   0.0000   0.0000
     0.0000   0.0000   0.0000   0.0000

          k = 0.2500-0.7500 0.0000 (  2120 PWs)   bands (ev):

    -3.1062   0.2996   2.9012   3.5057   8.1862   8.8770  11.9876  14.2204
    16.3819  16.4396  19.0959  19.4956  20.4485  20.8596  22.8841  23.2259
    25.7474  26.1397  27.9459  28.0676

     occupation numbers 
     1.0000   1.0000   1.0000   1.0000   0.0000   0.0000   0.0000   0.0000
     0.0000   0.0000   0.0000   0.0000   0.0000   0.0000   0.0000   0.0000
     0.0000   0.0000   0.0000   0.0000

          k = 0.1250-0.6250-0.1250 (  2114 PWs)   bands (ev):

    -3.9077   1.3230   3.5934   4.0594   7.5890   9.1241  12.2349  12.5011
    16.1712  16.4099  17.8940  19.3913  19.9989  21.0197  22.1006  23.3241
    24.5598  26.0607  27.9855  30.3045

     occupation numbers 
     1.0000   1.0000   1.0000   1.0000   0.0000   0.0000   0.0000   0.0000
     0.0000   0.0000   0.0000   0.0000   0.0000   0.0000   0.0000   0.0000
     0.0000   0.0000   0.0000   0.0000

          k = 0.0000-0.5000-0.2500 (  2111 PWs)   bands (ev):

    -4.3705   1.9741   3.5500   4.8392   8.6896  10.1393  10.4221  11.7406
    14.0019  16.4636  17.3302  18.3208  20.0620  21.3095  22.0343  24.4174
    25.4692  26.6896  27.8327  29.6457

     occupation numbers 
     1.0000   1.0000   1.0000   1.0000   0.0000   0.0000   0.0000   0.0000
     0.0000   0.0000   0.0000   0.0000   0.0000   0.0000   0.0000   0.0000
     0.0000   0.0000   0.0000   0.0000

          k =-0.1250-0.3750-0.3750 (  2117 PWs)   bands (ev):

    -4.4496   1.6370   3.9529   5.4953   8.9592   9.9166  10.0943  12.5344
    12.6799  16.0796  16.2865  18.6610  20.1738  21.6577  22.5429  24.2309
    25.0260  27.9819  28.0941  28.9992

     occupation numbers 
     1.0000   1.0000   1.0000   1.0000   0.0000   0.0000   0.0000   0.0000
     0.0000   0.0000   0.0000   0.0000   0.0000   0.0000   0.0000   0.0000
     0.0000   0.0000   0.0000   0.0000

          k =-0.1250-0.1250-0.3750 (  2106 PWs)   bands (ev):

    -4.9585   3.0390   4.9478   5.0224   8.3909   9.9521  10.7093  10.9755
    13.7313  14.3868  16.2698  17.8188  19.3402  20.6027  23.7737  24.2766
    25.4691  27.6571  27.7358  29.1525

     occupation numbers 
     1.0000   1.0000   1.0000   1.0000   0.0000   0.0000   0.0000   0.0000
     0.0000   0.0000   0.0000   0.0000   0.0000   0.0000   0.0000   0.0000
     0.0000   0.0000   0.0000   0.0000

          k =-0.2500 0.0000-0.5000 (  2111 PWs)   bands (ev):

    -4.3705   1.9741   3.5500   4.8392   8.6896  10.1393  10.4221  11.7406
    14.0019  16.4636  17.3302  18.3208  20.0620  21.3095  22.0343  24.4174
    25.4692  26.6896  27.8327  29.6457

     occupation numbers 
     1.0000   1.0000   1.0000   1.0000   0.0000   0.0000   0.0000   0.0000
     0.0000   0.0000   0.0000   0.0000   0.0000   0.0000   0.0000   0.0000
     0.0000   0.0000   0.0000   0.0000

          k =-0.3750 0.1250-0.6250 (  2117 PWs)   bands (ev):

    -3.4816   0.4213   2.9416   4.3371   9.1147   9.7897  11.2505  12.1677
    15.2338  15.9597  18.2123  19.1400  20.4529  21.3330  23.4597  24.4127
    25.1349  27.1547  27.9534  28.9678

     occupation numbers 
     1.0000   1.0000   1.0000   1.0000   0.0000   0.0000   0.0000   0.0000
     0.0000   0.0000   0.0000   0.0000   0.0000   0.0000   0.0000   0.0000
     0.0000   0.0000   0.0000   0.0000

          k =-0.5000 0.2500-0.7500 (  2132 PWs)   bands (ev):

    -2.8285  -0.5248   2.8128   4.1072   9.3046   9.3657  12.1427  13.3386
    13.6306  16.7864  17.9171  18.6192  21.7399  21.7610  24.2950  24.6226
    25.6357  26.9773  27.0868  28.1210

     occupation numbers 
     1.0000   1.0000   1.0000   1.0000   0.0000   0.0000   0.0000   0.0000
     0.0000   0.0000   0.0000   0.0000   0.0000   0.0000   0.0000   0.0000
     0.0000   0.0000   0.0000   0.0000

          k = 0.3750-0.6250 0.1250 (  2117 PWs)   bands (ev):

    -3.4816   0.4213   2.9416   4.3371   9.1147   9.7897  11.2505  12.1677
    15.2338  15.9597  18.2123  19.1400  20.4529  21.3330  23.4597  24.4127
    25.1349  27.1547  27.9534  28.9678

     occupation numbers 
     1.0000   1.0000   1.0000   1.0000   0.0000   0.0000   0.0000   0.0000
     0.0000   0.0000   0.0000   0.0000   0.0000   0.0000   0.0000   0.0000
     0.0000   0.0000   0.0000   0.0000

          k = 0.2500-0.5000 0.0000 (  2111 PWs)   bands (ev):

    -4.3705   1.9741   3.5500   4.8392   8.6896  10.1393  10.4221  11.7406
    14.0019  16.4636  17.3302  18.3208  20.0620  21.3095  22.0343  24.4174
    25.4692  26.6896  27.8327  29.6457

     occupation numbers 
     1.0000   1.0000   1.0000   1.0000   0.0000   0.0000   0.0000   0.0000
     0.0000   0.0000   0.0000   0.0000   0.0000   0.0000   0.0000   0.0000
     0.0000   0.0000   0.0000   0.0000

          k = 0.1250-0.3750-0.1250 (  2106 PWs)   bands (ev):

    -4.9585   3.0390   4.9478   5.0224   8.3909   9.9521  10.7093  10.9755
    13.7313  14.3868  16.2698  17.8188  19.3402  20.6027  23.7737  24.2766
    25.4691  27.6571  27.7358  29.1525

     occupation numbers 
     1.0000   1.0000   1.0000   1.0000   0.0000   0.0000   0.0000   0.0000
     0.0000   0.0000   0.0000   0.0000   0.0000   0.0000   0.0000   0.0000
     0.0000   0.0000   0.0000   0.0000

          k = 0.0000-0.2500-0.2500 (  2111 PWs)   bands (ev):

    -5.1598   3.5794   4.6348   5.9755   9.2850   9.3685   9.6034  11.7891
    12.5460  14.2396  16.0098  17.3975  18.5782  20.6704  23.8907  24.3672
    27.1485  27.2844  27.8321  29.1095

     occupation numbers 
     1.0000   1.0000   1.0000   1.0000   0.0000   0.0000   0.0000   0.0000
     0.0000   0.0000   0.0000   0.0000   0.0000   0.0000   0.0000   0.0000
     0.0000   0.0000   0.0000   0.0000

          k = 0.0000 0.0000-0.2500 (  2105 PWs)   bands (ev):

    -5.4272   4.9299   5.4586   5.4586   8.2555   9.9488   9.9488  10.6405
    12.7141  14.2168  15.2935  17.9383  17.9383  18.4233  23.4571  26.7456
    26.7456  27.8984  28.7758  29.5226

     occupation numbers 
     1.0000   1.0000   1.0000   1.0000   0.0000   0.0000   0.0000   0.0000
     0.0000   0.0000   0.0000   0.0000   0.0000   0.0000   0.0000   0.0000
     0.0000   0.0000   0.0000   0.0000

          k =-0.1250 0.1250-0.3750 (  2106 PWs)   bands (ev):

    -4.9585   3.0390   4.9478   5.0224   8.3909   9.9521  10.7093  10.9755
    13.7313  14.3868  16.2698  17.8188  19.3402  20.6027  23.7737  24.2766
    25.4691  27.6571  27.7358  29.1525

     occupation numbers 
     1.0000   1.0000   1.0000   1.0000   0.0000   0.0000   0.0000   0.0000
     0.0000   0.0000   0.0000   0.0000   0.0000   0.0000   0.0000   0.0000
     0.0000   0.0000   0.0000   0.0000

          k =-0.2500 0.2500-0.5000 (  2116 PWs)   bands (ev):

    -4.1432   0.9774   4.4306   4.6811   8.4860   9.8809  10.6984  11.6940
    15.5192  15.5823  16.1847  19.5860  19.7068  21.3730  22.8837  23.8270
    24.8008  27.9660  28.7530  29.7470

     occupation numbers 
     1.0000   1.0000   1.0000   1.0000   0.0000   0.0000   0.0000   0.0000
     0.0000   0.0000   0.0000   0.0000   0.0000   0.0000   0.0000   0.0000
     0.0000   0.0000   0.0000   0.0000

          k =-0.3750 0.3750-0.6250 (  2115 PWs)   bands (ev):

    -3.2809  -0.4872   3.9848   4.7068   8.4310   9.7509  10.3316  13.5998
    15.2222  16.6713  17.7660  17.8599  18.7549  21.2574  24.4912  25.8173
    26.4893  27.2079  28.0263  28.4242

     occupation numbers 
     1.0000   1.0000   1.0000   1.0000   0.0000   0.0000   0.0000   0.0000
     0.0000   0.0000   0.0000   0.0000   0.0000   0.0000   0.0000   0.0000
     0.0000   0.0000   0.0000   0.0000

          k = 0.5000-0.5000 0.2500 (  2110 PWs)   bands (ev):

    -3.5258  -0.1161   3.8027   5.0039   8.5983   9.8587  10.1009  14.1547
    14.3032  15.4347  17.4027  18.6532  20.4469  20.9586  23.0602  24.8221
    26.6468  28.3112  28.5062  28.6440

     occupation numbers 
     1.0000   1.0000   1.0000   1.0000   0.0000   0.0000   0.0000   0.0000
     0.0000   0.0000   0.0000   0.0000   0.0000   0.0000   0.0000   0.0000
     0.0000   0.0000   0.0000   0.0000

          k = 0.3750-0.3750 0.1250 (  2117 PWs)   bands (ev):

    -4.4496   1.6370   3.9529   5.4953   8.9592   9.9166  10.0943  12.5344
    12.6799  16.0796  16.2865  18.6610  20.1738  21.6577  22.5429  24.2309
    25.0260  27.9819  28.0941  28.9992

     occupation numbers 
     1.0000   1.0000   1.0000   1.0000   0.0000   0.0000   0.0000   0.0000
     0.0000   0.0000   0.0000   0.0000   0.0000   0.0000   0.0000   0.0000
     0.0000   0.0000   0.0000   0.0000

          k = 0.2500-0.2500 0.0000 (  2111 PWs)   bands (ev):

    -5.1598   3.5794   4.6348   5.9755   9.2850   9.3685   9.6034  11.7891
    12.5460  14.2396  16.0098  17.3975  18.5782  20.6704  23.8907  24.3672
    27.1485  27.2844  27.8321  29.1095

     occupation numbers 
     1.0000   1.0000   1.0000   1.0000   0.0000   0.0000   0.0000   0.0000
     0.0000   0.0000   0.0000   0.0000   0.0000   0.0000   0.0000   0.0000
     0.0000   0.0000   0.0000   0.0000

          k = 0.1250-0.1250-0.1250 (  2112 PWs)   bands (ev):

    -5.4960   4.6643   5.9773   5.9773   8.7450   9.2331   9.2331  10.9562
    13.4384  13.4384  14.9922  16.9145  18.6225  18.6225  22.8798  27.1989
    27.1989  27.5374  29.8626  29.8626

     occupation numbers 
     1.0000   1.0000   1.0000   1.0000   0.0000   0.0000   0.0000   0.0000
     0.0000   0.0000   0.0000   0.0000   0.0000   0.0000   0.0000   0.0000
     0.0000   0.0000   0.0000   0.0000

     highest occupied, lowest unoccupied level (ev):     6.2661    6.8513

     Writing all to output data dir /scratch/elinscott/materials_cloud_archive/si/postproc/TMP/kc.save/
 
     init_run     :      0.02s CPU      0.03s WALL (       1 calls)
     electrons    :      9.79s CPU     10.35s WALL (       1 calls)

     Called by init_run:
     wfcinit      :      0.00s CPU      0.00s WALL (       1 calls)
     wfcinit:wfcr :      0.29s CPU      0.32s WALL (     128 calls)
     potinit      :      0.00s CPU      0.01s WALL (       1 calls)
     hinit0       :      0.00s CPU      0.01s WALL (       1 calls)

     Called by electrons:
     c_bands      :      9.79s CPU     10.34s WALL (       1 calls)
     v_of_rho     :      0.00s CPU      0.01s WALL (       1 calls)
     v_h          :      0.00s CPU      0.00s WALL (       1 calls)
     v_xc         :      0.00s CPU      0.00s WALL (       1 calls)

     Called by c_bands:
     init_us_2    :      0.01s CPU      0.01s WALL (     128 calls)
     init_us_2:cp :      0.01s CPU      0.01s WALL (     128 calls)
     cegterg      :      8.71s CPU      9.21s WALL (     270 calls)

     Called by sum_band:

     Called by *egterg:
     cdiaghg      :      1.88s CPU      1.96s WALL (    4354 calls)
     cegterg:over :      0.46s CPU      0.49s WALL (    4226 calls)
     cegterg:upda :      0.20s CPU      0.21s WALL (    4226 calls)
     cegterg:last :      0.30s CPU      0.31s WALL (    2842 calls)
     h_psi        :      5.92s CPU      6.29s WALL (    4624 calls)
     g_psi        :      0.07s CPU      0.07s WALL (    4226 calls)

     Called by h_psi:
     h_psi:calbec :      0.17s CPU      0.18s WALL (    4624 calls)
     vloc_psi     :      5.58s CPU      5.93s WALL (    4624 calls)
     add_vuspsi   :      0.10s CPU      0.10s WALL (    4624 calls)

     General routines
     calbec       :      0.16s CPU      0.18s WALL (    4624 calls)
     fft          :      0.00s CPU      0.01s WALL (      10 calls)
     fftw         :      4.71s CPU      5.01s WALL (  119282 calls)
     davcio       :      0.02s CPU      0.02s WALL (     256 calls)
 
     Parallel routines
 
     PWSCF        :      9.96s CPU     10.65s WALL

 
   This run was terminated on:  15:52:52   7Feb2023            

=------------------------------------------------------------------------------=
   JOB DONE.
=------------------------------------------------------------------------------=
