 written on  7Feb2023 at 15:05:06 
           4
          93
    4    6    2    2    2    1    2    2    1    1    2    6    2    2    2
    6    2    2    4    1    1    1    4    1    1    1    1    2    1    1
    1    2    2    1    1    2    4    2    1    2    1    1    1    1    2
    1    1    1    2    1    1    1    1    2    1    2    4    2    1    1
    2    2    1    1    1    2    1    1    1    1    4    1    1    1    4
    2    2    6    2    2    2    6    2    1    1    2    2    1    2    2
    2    6    4
   -3    1    1    1    1    0.129609    0.000000
   -3    1    1    2    1    0.023684    0.000000
   -3    1    1    3    1    0.023684    0.000000
   -3    1    1    4    1    0.023684    0.000000
   -3    1    1    1    2    0.023684    0.000000
   -3    1    1    2    2    0.129609   -0.000000
   -3    1    1    3    2    0.023684    0.000000
   -3    1    1    4    2    0.023684    0.000000
   -3    1    1    1    3    0.023684    0.000000
   -3    1    1    2    3    0.023684    0.000000
   -3    1    1    3    3    0.129609   -0.000000
   -3    1    1    4    3    0.023684    0.000000
   -3    1    1    1    4    0.023684    0.000000
   -3    1    1    2    4    0.023684    0.000000
   -3    1    1    3    4    0.023684    0.000000
   -3    1    1    4    4    0.129609   -0.000000
   -2   -2    2    1    1    0.050284   -0.000000
   -2   -2    2    2    1   -0.024739   -0.000000
   -2   -2    2    3    1   -0.024739   -0.000000
   -2   -2    2    4    1   -0.024739    0.000000
   -2   -2    2    1    2   -0.024739    0.000000
   -2   -2    2    2    2    0.050284    0.000000
   -2   -2    2    3    2   -0.024739   -0.000000
   -2   -2    2    4    2   -0.024739    0.000000
   -2   -2    2    1    3   -0.024739    0.000000
   -2   -2    2    2    3   -0.024739    0.000000
   -2   -2    2    3    3    0.050284   -0.000000
   -2   -2    2    4    3   -0.024739    0.000000
   -2   -2    2    1    4   -0.024739   -0.000000
   -2   -2    2    2    4   -0.024739   -0.000000
   -2   -2    2    3    4   -0.024739   -0.000000
   -2   -2    2    4    4    0.050284    0.000000
   -2   -1    1    1    1   -0.089048    0.000000
   -2   -1    1    2    1    0.000956   -0.000000
   -2   -1    1    3    1   -0.034143    0.000000
   -2   -1    1    4    1    0.000956   -0.000000
   -2   -1    1    1    2   -0.017739   -0.000000
   -2   -1    1    2    2    0.008734   -0.000000
   -2   -1    1    3    2    0.000956    0.000000
   -2   -1    1    4    2   -0.041955   -0.000000
   -2   -1    1    1    3   -0.024738   -0.000000
   -2   -1    1    2    3   -0.017739    0.000000
   -2   -1    1    3    3   -0.089048   -0.000000
   -2   -1    1    4    3   -0.017739   -0.000000
   -2   -1    1    1    4   -0.017739    0.000000
   -2   -1    1    2    4   -0.041955   -0.000000
   -2   -1    1    3    4    0.000956    0.000000
   -2   -1    1    4    4    0.008734    0.000000
   -2   -1    2    1    1   -0.089048    0.000000
   -2   -1    2    2    1   -0.034143    0.000000
   -2   -1    2    3    1    0.000956   -0.000000
   -2   -1    2    4    1    0.000956   -0.000000
   -2   -1    2    1    2   -0.024738    0.000000
   -2   -1    2    2    2   -0.089048    0.000000
   -2   -1    2    3    2   -0.017739   -0.000000
   -2   -1    2    4    2   -0.017739   -0.000000
   -2   -1    2    1    3   -0.017739    0.000000
   -2   -1    2    2    3    0.000956    0.000000
   -2   -1    2    3    3    0.008734    0.000000
   -2   -1    2    4    3   -0.041955    0.000000
   -2   -1    2    1    4   -0.017739    0.000000
   -2   -1    2    2    4    0.000956    0.000000
   -2   -1    2    3    4   -0.041955   -0.000000
   -2   -1    2    4    4    0.008734    0.000000
   -2    0    0    1    1    0.184115    0.000000
   -2    0    0    2    1   -0.011611    0.000000
   -2    0    0    3    1   -0.034143    0.000000
   -2    0    0    4    1   -0.011611   -0.000000
   -2    0    0    1    2   -0.011611   -0.000000
   -2    0    0    2    2   -0.218552    0.000000
   -2    0    0    3    2   -0.011611   -0.000000
   -2    0    0    4    2   -0.512256   -0.000000
   -2    0    0    1    3   -0.034143   -0.000000
   -2    0    0    2    3   -0.011611    0.000000
   -2    0    0    3    3    0.184115    0.000000
   -2    0    0    4    3   -0.011611    0.000000
   -2    0    0    1    4   -0.011611    0.000000
   -2    0    0    2    4   -0.512256    0.000000
   -2    0    0    3    4   -0.011611   -0.000000
   -2    0    0    4    4   -0.218552    0.000000
   -2    0    1    1    1    0.055497   -0.000000
   -2    0    1    2    1    0.102062   -0.000000
   -2    0    1    3    1    0.102062    0.000000
   -2    0    1    4    1    0.023684   -0.000000
   -2    0    1    1    2    0.000956    0.000000
   -2    0    1    2    2   -0.060535   -0.000000
   -2    0    1    3    2   -0.011610    0.000000
   -2    0    1    4    2    0.018927   -0.000000
   -2    0    1    1    3    0.000956    0.000000
   -2    0    1    2    3   -0.011610   -0.000000
   -2    0    1    3    3   -0.060535   -0.000000
   -2    0    1    4    3    0.018927   -0.000000
   -2    0    1    1    4   -0.055269   -0.000000
   -2    0    1    2    4    0.163832   -0.000000
   -2    0    1    3    4    0.163832    0.000000
   -2    0    1    4    4   -0.013378    0.000000
   -2    0    2    1    1    0.184115    0.000000
   -2    0    2    2    1   -0.034143    0.000000
   -2    0    2    3    1   -0.011611   -0.000000
   -2    0    2    4    1   -0.011611   -0.000000
   -2    0    2    1    2   -0.034143   -0.000000
   -2    0    2    2    2    0.184115    0.000000
   -2    0    2    3    2   -0.011611    0.000000
   -2    0    2    4    2   -0.011611   -0.000000
   -2    0    2    1    3   -0.011611    0.000000
   -2    0    2    2    3   -0.011611   -0.000000
   -2    0    2    3    3   -0.218552   -0.000000
   -2    0    2    4    3   -0.512256    0.000000
   -2    0    2    1    4   -0.011611    0.000000
   -2    0    2    2    4   -0.011611    0.000000
   -2    0    2    3    4   -0.512256   -0.000000
   -2    0    2    4    4   -0.218552    0.000000
   -2    1   -1    1    1   -0.089048   -0.000000
   -2    1   -1    2    1   -0.017739    0.000000
   -2    1   -1    3    1   -0.024738    0.000000
   -2    1   -1    4    1   -0.017739   -0.000000
   -2    1   -1    1    2    0.000956    0.000000
   -2    1   -1    2    2    0.008734    0.000000
   -2    1   -1    3    2   -0.017739   -0.000000
   -2    1   -1    4    2   -0.041955    0.000000
   -2    1   -1    1    3   -0.034143   -0.000000
   -2    1   -1    2    3    0.000956   -0.000000
   -2    1   -1    3    3   -0.089048    0.000000
   -2    1   -1    4    3    0.000956   -0.000000
   -2    1   -1    1    4    0.000956    0.000000
   -2    1   -1    2    4   -0.041955    0.000000
   -2    1   -1    3    4   -0.017739    0.000000
   -2    1   -1    4    4    0.008734   -0.000000
   -2    1    0    1    1   -0.060535   -0.000000
   -2    1    0    2    1   -0.011610   -0.000000
   -2    1    0    3    1    0.000956    0.000000
   -2    1    0    4    1    0.018927   -0.000000
   -2    1    0    1    2   -0.011610   -0.000000
   -2    1    0    2    2   -0.060535    0.000000
   -2    1    0    3    2    0.000956    0.000000
   -2    1    0    4    2    0.018927   -0.000000
   -2    1    0    1    3    0.102062    0.000000
   -2    1    0    2    3    0.102062   -0.000000
   -2    1    0    3    3    0.055497    0.000000
   -2    1    0    4    3    0.023684   -0.000000
   -2    1    0    1    4    0.163832   -0.000000
   -2    1    0    2    4    0.163832   -0.000000
   -2    1    0    3    4   -0.055269   -0.000000
   -2    1    0    4    4   -0.013378   -0.000000
   -2    1    1    1    1   -0.060535    0.000000
   -2    1    1    2    1    0.000956    0.000000
   -2    1    1    3    1   -0.011610   -0.000000
   -2    1    1    4    1    0.018927   -0.000000
   -2    1    1    1    2    0.102062    0.000000
   -2    1    1    2    2    0.055497    0.000000
   -2    1    1    3    2    0.102062    0.000000
   -2    1    1    4    2    0.023684   -0.000000
   -2    1    1    1    3   -0.011610   -0.000000
   -2    1    1    2    3    0.000956    0.000000
   -2    1    1    3    3   -0.060535   -0.000000
   -2    1    1    4    3    0.018927   -0.000000
   -2    1    1    1    4    0.163832   -0.000000
   -2    1    1    2    4   -0.055269   -0.000000
   -2    1    1    3    4    0.163832   -0.000000
   -2    1    1    4    4   -0.013378   -0.000000
   -2    1    2    1    1   -0.089048   -0.000000
   -2    1    2    2    1   -0.024738   -0.000000
   -2    1    2    3    1   -0.017739   -0.000000
   -2    1    2    4    1   -0.017739   -0.000000
   -2    1    2    1    2   -0.034143   -0.000000
   -2    1    2    2    2   -0.089048   -0.000000
   -2    1    2    3    2    0.000956   -0.000000
   -2    1    2    4    2    0.000956   -0.000000
   -2    1    2    1    3    0.000956    0.000000
   -2    1    2    2    3   -0.017739    0.000000
   -2    1    2    3    3    0.008734   -0.000000
   -2    1    2    4    3   -0.041955    0.000000
   -2    1    2    1    4    0.000956    0.000000
   -2    1    2    2    4   -0.017739    0.000000
   -2    1    2    3    4   -0.041955   -0.000000
   -2    1    2    4    4    0.008734   -0.000000
   -2    2   -2    1    1    0.050284   -0.000000
   -2    2   -2    2    1   -0.024739   -0.000000
   -2    2   -2    3    1   -0.024739   -0.000000
   -2    2   -2    4    1   -0.024739    0.000000
   -2    2   -2    1    2   -0.024739    0.000000
   -2    2   -2    2    2    0.050284    0.000000
   -2    2   -2    3    2   -0.024739   -0.000000
   -2    2   -2    4    2   -0.024739    0.000000
   -2    2   -2    1    3   -0.024739    0.000000
   -2    2   -2    2    3   -0.024739    0.000000
   -2    2   -2    3    3    0.050284    0.000000
   -2    2   -2    4    3   -0.024739    0.000000
   -2    2   -2    1    4   -0.024739   -0.000000
   -2    2   -2    2    4   -0.024739   -0.000000
   -2    2   -2    3    4   -0.024739   -0.000000
   -2    2   -2    4    4    0.050284    0.000000
   -2    2   -1    1    1    0.008734    0.000000
   -2    2   -1    2    1    0.000956    0.000000
   -2    2   -1    3    1   -0.017739   -0.000000
   -2    2   -1    4    1   -0.041955    0.000000
   -2    2   -1    1    2   -0.017739   -0.000000
   -2    2   -1    2    2   -0.089048   -0.000000
   -2    2   -1    3    2   -0.024738    0.000000
   -2    2   -1    4    2   -0.017739   -0.000000
   -2    2   -1    1    3    0.000956   -0.000000
   -2    2   -1    2    3   -0.034143   -0.000000
   -2    2   -1    3    3   -0.089048   -0.000000
   -2    2   -1    4    3    0.000956   -0.000000
   -2    2   -1    1    4   -0.041955   -0.000000
   -2    2   -1    2    4    0.000956    0.000000
   -2    2   -1    3    4   -0.017739    0.000000
   -2    2   -1    4    4    0.008734   -0.000000
   -2    2    0    1    1   -0.218552   -0.000000
   -2    2    0    2    1   -0.011611   -0.000000
   -2    2    0    3    1   -0.011611   -0.000000
   -2    2    0    4    1   -0.512256    0.000000
   -2    2    0    1    2   -0.011611    0.000000
   -2    2    0    2    2    0.184115   -0.000000
   -2    2    0    3    2   -0.034143    0.000000
   -2    2    0    4    2   -0.011611    0.000000
   -2    2    0    1    3   -0.011611    0.000000
   -2    2    0    2    3   -0.034143   -0.000000
   -2    2    0    3    3    0.184115    0.000000
   -2    2    0    4    3   -0.011611    0.000000
   -2    2    0    1    4   -0.512256   -0.000000
   -2    2    0    2    4   -0.011611   -0.000000
   -2    2    0    3    4   -0.011611   -0.000000
   -2    2    0    4    4   -0.218552    0.000000
   -2    2    1    1    1    0.008734   -0.000000
   -2    2    1    2    1   -0.017739    0.000000
   -2    2    1    3    1    0.000956    0.000000
   -2    2    1    4    1   -0.041955    0.000000
   -2    2    1    1    2    0.000956   -0.000000
   -2    2    1    2    2   -0.089048    0.000000
   -2    2    1    3    2   -0.034143    0.000000
   -2    2    1    4    2    0.000956   -0.000000
   -2    2    1    1    3   -0.017739    0.000000
   -2    2    1    2    3   -0.024738   -0.000000
   -2    2    1    3    3   -0.089048    0.000000
   -2    2    1    4    3   -0.017739   -0.000000
   -2    2    1    1    4   -0.041955   -0.000000
   -2    2    1    2    4   -0.017739    0.000000
   -2    2    1    3    4    0.000956    0.000000
   -2    2    1    4    4    0.008734    0.000000
   -2    2    2    1    1    0.050284   -0.000000
   -2    2    2    2    1   -0.024739   -0.000000
   -2    2    2    3    1   -0.024739   -0.000000
   -2    2    2    4    1   -0.024739    0.000000
   -2    2    2    1    2   -0.024739    0.000000
   -2    2    2    2    2    0.050284   -0.000000
   -2    2    2    3    2   -0.024739   -0.000000
   -2    2    2    4    2   -0.024739    0.000000
   -2    2    2    1    3   -0.024739    0.000000
   -2    2    2    2    3   -0.024739    0.000000
   -2    2    2    3    3    0.050284   -0.000000
   -2    2    2    4    3   -0.024739    0.000000
   -2    2    2    1    4   -0.024739   -0.000000
   -2    2    2    2    4   -0.024739   -0.000000
   -2    2    2    3    4   -0.024739   -0.000000
   -2    2    2    4    4    0.050284    0.000000
   -1   -2    1    1    1    0.008734   -0.000000
   -1   -2    1    2    1   -0.041955   -0.000000
   -1   -2    1    3    1    0.000956    0.000000
   -1   -2    1    4    1   -0.017739   -0.000000
   -1   -2    1    1    2   -0.041955   -0.000000
   -1   -2    1    2    2    0.008734   -0.000000
   -1   -2    1    3    2    0.000956    0.000000
   -1   -2    1    4    2   -0.017739   -0.000000
   -1   -2    1    1    3   -0.017739    0.000000
   -1   -2    1    2    3   -0.017739   -0.000000
   -1   -2    1    3    3   -0.089048   -0.000000
   -1   -2    1    4    3   -0.024738    0.000000
   -1   -2    1    1    4    0.000956    0.000000
   -1   -2    1    2    4    0.000956   -0.000000
   -1   -2    1    3    4   -0.034143   -0.000000
   -1   -2    1    4    4   -0.089048   -0.000000
   -1   -2    2    1    1    0.008734   -0.000000
   -1   -2    2    2    1    0.000956    0.000000
   -1   -2    2    3    1   -0.041955   -0.000000
   -1   -2    2    4    1   -0.017739   -0.000000
   -1   -2    2    1    2   -0.017739   -0.000000
   -1   -2    2    2    2   -0.089048    0.000000
   -1   -2    2    3    2   -0.017739   -0.000000
   -1   -2    2    4    2   -0.024738    0.000000
   -1   -2    2    1    3   -0.041955   -0.000000
   -1   -2    2    2    3    0.000956    0.000000
   -1   -2    2    3    3    0.008734    0.000000
   -1   -2    2    4    3   -0.017739   -0.000000
   -1   -2    2    1    4    0.000956   -0.000000
   -1   -2    2    2    4   -0.034143   -0.000000
   -1   -2    2    3    4    0.000956   -0.000000
   -1   -2    2    4    4   -0.089048   -0.000000
   -1   -1   -1    1    1    0.129609   -0.000000
   -1   -1   -1    2    1    0.023684   -0.000000
   -1   -1   -1    3    1    0.023684   -0.000000
   -1   -1   -1    4    1    0.023684   -0.000000
   -1   -1   -1    1    2    0.023684   -0.000000
   -1   -1   -1    2    2    0.129609    0.000000
   -1   -1   -1    3    2    0.023684   -0.000000
   -1   -1   -1    4    2    0.023684   -0.000000
   -1   -1   -1    1    3    0.023684   -0.000000
   -1   -1   -1    2    3    0.023684   -0.000000
   -1   -1   -1    3    3    0.129609    0.000000
   -1   -1   -1    4    3    0.023684   -0.000000
   -1   -1   -1    1    4    0.023684   -0.000000
   -1   -1   -1    2    4    0.023684   -0.000000
   -1   -1   -1    3    4    0.023684   -0.000000
   -1   -1   -1    4    4    0.129609    0.000000
   -1   -1    0    1    1   -0.060535    0.000000
   -1   -1    0    2    1    0.163832    0.000000
   -1   -1    0    3    1    0.102062    0.000000
   -1   -1    0    4    1   -0.011610    0.000000
   -1   -1    0    1    2    0.018927    0.000000
   -1   -1    0    2    2   -0.013378    0.000000
   -1   -1    0    3    2    0.023684    0.000000
   -1   -1    0    4    2    0.018927   -0.000000
   -1   -1    0    1    3    0.000956   -0.000000
   -1   -1    0    2    3   -0.055269    0.000000
   -1   -1    0    3    3    0.055497   -0.000000
   -1   -1    0    4    3    0.000956   -0.000000
   -1   -1    0    1    4   -0.011610    0.000000
   -1   -1    0    2    4    0.163832    0.000000
   -1   -1    0    3    4    0.102062    0.000000
   -1   -1    0    4    4   -0.060535   -0.000000
   -1   -1    1    1    1    0.020808   -0.000000
   -1   -1    1    2    1   -0.133406    0.000000
   -1   -1    1    3    1   -0.133406    0.000000
   -1   -1    1    4    1   -0.055269    0.000000
   -1   -1    1    1    2   -0.041955    0.000000
   -1   -1    1    2    2    0.020808    0.000000
   -1   -1    1    3    2   -0.055269   -0.000000
   -1   -1    1    4    2   -0.041955    0.000000
   -1   -1    1    1    3   -0.041955    0.000000
   -1   -1    1    2    3   -0.055269   -0.000000
   -1   -1    1    3    3    0.020808    0.000000
   -1   -1    1    4    3   -0.041955    0.000000
   -1   -1    1    1    4   -0.055269    0.000000
   -1   -1    1    2    4   -0.133406   -0.000000
   -1   -1    1    3    4   -0.133406   -0.000000
   -1   -1    1    4    4    0.020808    0.000000
   -1   -1    2    1    1   -0.060535    0.000000
   -1   -1    2    2    1    0.102062   -0.000000
   -1   -1    2    3    1    0.163832    0.000000
   -1   -1    2    4    1   -0.011610    0.000000
   -1   -1    2    1    2    0.000956   -0.000000
   -1   -1    2    2    2    0.055497   -0.000000
   -1   -1    2    3    2   -0.055269    0.000000
   -1   -1    2    4    2    0.000956   -0.000000
   -1   -1    2    1    3    0.018927    0.000000
   -1   -1    2    2    3    0.023684    0.000000
   -1   -1    2    3    3   -0.013378   -0.000000
   -1   -1    2    4    3    0.018927    0.000000
   -1   -1    2    1    4   -0.011610   -0.000000
   -1   -1    2    2    4    0.102062    0.000000
   -1   -1    2    3    4    0.163832    0.000000
   -1   -1    2    4    4   -0.060535    0.000000
   -1   -1    3    1    1    0.129609   -0.000000
   -1   -1    3    2    1    0.023684   -0.000000
   -1   -1    3    3    1    0.023684   -0.000000
   -1   -1    3    4    1    0.023684   -0.000000
   -1   -1    3    1    2    0.023684   -0.000000
   -1   -1    3    2    2    0.129609    0.000000
   -1   -1    3    3    2    0.023684   -0.000000
   -1   -1    3    4    2    0.023684   -0.000000
   -1   -1    3    1    3    0.023684   -0.000000
   -1   -1    3    2    3    0.023684   -0.000000
   -1   -1    3    3    3    0.129609    0.000000
   -1   -1    3    4    3    0.023684   -0.000000
   -1   -1    3    1    4    0.023684   -0.000000
   -1   -1    3    2    4    0.023684   -0.000000
   -1   -1    3    3    4    0.023684   -0.000000
   -1   -1    3    4    4    0.129609    0.000000
   -1    0   -1    1    1    0.055497    0.000000
   -1    0   -1    2    1   -0.055269    0.000000
   -1    0   -1    3    1    0.000956   -0.000000
   -1    0   -1    4    1    0.000956   -0.000000
   -1    0   -1    1    2    0.023684    0.000000
   -1    0   -1    2    2   -0.013378    0.000000
   -1    0   -1    3    2    0.018927   -0.000000
   -1    0   -1    4    2    0.018927   -0.000000
   -1    0   -1    1    3    0.102062    0.000000
   -1    0   -1    2    3    0.163832    0.000000
   -1    0   -1    3    3   -0.060535    0.000000
   -1    0   -1    4    3   -0.011610   -0.000000
   -1    0   -1    1    4    0.102062    0.000000
   -1    0   -1    2    4    0.163832    0.000000
   -1    0   -1    3    4   -0.011610   -0.000000
   -1    0   -1    4    4   -0.060535   -0.000000
   -1    0    0    1    1    0.096257   -0.000000
   -1    0    0    2    1    0.180518   -0.000000
   -1    0    0    3    1   -0.133407   -0.000000
   -1    0    0    4    1    0.163832    0.000000
   -1    0    0    1    2    0.163832   -0.000000
   -1    0    0    2    2   -0.267137    0.000000
   -1    0    0    3    2    0.163832   -0.000000
   -1    0    0    4    2   -0.512256   -0.000000
   -1    0    0    1    3   -0.133407    0.000000
   -1    0    0    2    3    0.180518   -0.000000
   -1    0    0    3    3    0.096257    0.000000
   -1    0    0    4    3    0.163832    0.000000
   -1    0    0    1    4    0.180518    0.000000
   -1    0    0    2    4   -0.095568    0.000000
   -1    0    0    3    4    0.180518   -0.000000
   -1    0    0    4    4   -0.267137   -0.000000
   -1    0    1    1    1    0.096257   -0.000000
   -1    0    1    2    1   -0.133407   -0.000000
   -1    0    1    3    1    0.180518   -0.000000
   -1    0    1    4    1    0.163832    0.000000
   -1    0    1    1    2   -0.133407   -0.000000
   -1    0    1    2    2    0.096257   -0.000000
   -1    0    1    3    2    0.180518    0.000000
   -1    0    1    4    2    0.163832    0.000000
   -1    0    1    1    3    0.163832   -0.000000
   -1    0    1    2    3    0.163832   -0.000000
   -1    0    1    3    3   -0.267137   -0.000000
   -1    0    1    4    3   -0.512256    0.000000
   -1    0    1    1    4    0.180518    0.000000
   -1    0    1    2    4    0.180518   -0.000000
   -1    0    1    3    4   -0.095568   -0.000000
   -1    0    1    4    4   -0.267137    0.000000
   -1    0    2    1    1    0.055497    0.000000
   -1    0    2    2    1    0.000956   -0.000000
   -1    0    2    3    1   -0.055269    0.000000
   -1    0    2    4    1    0.000956   -0.000000
   -1    0    2    1    2    0.102062    0.000000
   -1    0    2    2    2   -0.060535   -0.000000
   -1    0    2    3    2    0.163832    0.000000
   -1    0    2    4    2   -0.011610   -0.000000
   -1    0    2    1    3    0.023684    0.000000
   -1    0    2    2    3    0.018927    0.000000
   -1    0    2    3    3   -0.013378   -0.000000
   -1    0    2    4    3    0.018927   -0.000000
   -1    0    2    1    4    0.102062    0.000000
   -1    0    2    2    4   -0.011610   -0.000000
   -1    0    2    3    4    0.163832    0.000000
   -1    0    2    4    4   -0.060535    0.000000
   -1    1   -2    1    1   -0.089048   -0.000000
   -1    1   -2    2    1   -0.017739    0.000000
   -1    1   -2    3    1   -0.017739   -0.000000
   -1    1   -2    4    1   -0.024738    0.000000
   -1    1   -2    1    2    0.000956    0.000000
   -1    1   -2    2    2    0.008734   -0.000000
   -1    1   -2    3    2   -0.041955   -0.000000
   -1    1   -2    4    2   -0.017739   -0.000000
   -1    1   -2    1    3    0.000956    0.000000
   -1    1   -2    2    3   -0.041955   -0.000000
   -1    1   -2    3    3    0.008734   -0.000000
   -1    1   -2    4    3   -0.017739   -0.000000
   -1    1   -2    1    4   -0.034143   -0.000000
   -1    1   -2    2    4    0.000956   -0.000000
   -1    1   -2    3    4    0.000956   -0.000000
   -1    1   -2    4    4   -0.089048    0.000000
   -1    1   -1    1    1    0.020808   -0.000000
   -1    1   -1    2    1   -0.055269   -0.000000
   -1    1   -1    3    1   -0.041955    0.000000
   -1    1   -1    4    1   -0.041955    0.000000
   -1    1   -1    1    2   -0.055269   -0.000000
   -1    1   -1    2    2    0.020808   -0.000000
   -1    1   -1    3    2   -0.041955    0.000000
   -1    1   -1    4    2   -0.041955    0.000000
   -1    1   -1    1    3   -0.133406    0.000000
   -1    1   -1    2    3   -0.133406    0.000000
   -1    1   -1    3    3    0.020808   -0.000000
   -1    1   -1    4    3   -0.055269    0.000000
   -1    1   -1    1    4   -0.133406   -0.000000
   -1    1   -1    2    4   -0.133406   -0.000000
   -1    1   -1    3    4   -0.055269    0.000000
   -1    1   -1    4    4    0.020808    0.000000
   -1    1    0    1    1   -0.267137    0.000000
   -1    1    0    2    1    0.163832   -0.000000
   -1    1    0    3    1    0.163832   -0.000000
   -1    1    0    4    1   -0.512256    0.000000
   -1    1    0    1    2    0.180518    0.000000
   -1    1    0    2    2    0.096257    0.000000
   -1    1    0    3    2   -0.133407   -0.000000
   -1    1    0    4    2    0.163832    0.000000
   -1    1    0    1    3    0.180518   -0.000000
   -1    1    0    2    3   -0.133407   -0.000000
   -1    1    0    3    3    0.096257   -0.000000
   -1    1    0    4    3    0.163832    0.000000
   -1    1    0    1    4   -0.095568   -0.000000
   -1    1    0    2    4    0.180518    0.000000
   -1    1    0    3    4    0.180518   -0.000000
   -1    1    0    4    4   -0.267137   -0.000000
   -1    1    1    1    1    0.020808    0.000000
   -1    1    1    2    1   -0.041955    0.000000
   -1    1    1    3    1   -0.055269   -0.000000
   -1    1    1    4    1   -0.041955    0.000000
   -1    1    1    1    2   -0.133406    0.000000
   -1    1    1    2    2    0.020808    0.000000
   -1    1    1    3    2   -0.133406   -0.000000
   -1    1    1    4    2   -0.055269    0.000000
   -1    1    1    1    3   -0.055269   -0.000000
   -1    1    1    2    3   -0.041955    0.000000
   -1    1    1    3    3    0.020808    0.000000
   -1    1    1    4    3   -0.041955    0.000000
   -1    1    1    1    4   -0.133406   -0.000000
   -1    1    1    2    4   -0.055269    0.000000
   -1    1    1    3    4   -0.133406   -0.000000
   -1    1    1    4    4    0.020808    0.000000
   -1    1    2    1    1   -0.089048   -0.000000
   -1    1    2    2    1   -0.017739    0.000000
   -1    1    2    3    1   -0.017739   -0.000000
   -1    1    2    4    1   -0.024738    0.000000
   -1    1    2    1    2    0.000956    0.000000
   -1    1    2    2    2    0.008734   -0.000000
   -1    1    2    3    2   -0.041955   -0.000000
   -1    1    2    4    2   -0.017739   -0.000000
   -1    1    2    1    3    0.000956    0.000000
   -1    1    2    2    3   -0.041955   -0.000000
   -1    1    2    3    3    0.008734   -0.000000
   -1    1    2    4    3   -0.017739   -0.000000
   -1    1    2    1    4   -0.034143   -0.000000
   -1    1    2    2    4    0.000956   -0.000000
   -1    1    2    3    4    0.000956   -0.000000
   -1    1    2    4    4   -0.089048    0.000000
   -1    2   -2    1    1    0.008734   -0.000000
   -1    2   -2    2    1    0.000956    0.000000
   -1    2   -2    3    1   -0.041955   -0.000000
   -1    2   -2    4    1   -0.017739   -0.000000
   -1    2   -2    1    2   -0.017739   -0.000000
   -1    2   -2    2    2   -0.089048    0.000000
   -1    2   -2    3    2   -0.017739   -0.000000
   -1    2   -2    4    2   -0.024738    0.000000
   -1    2   -2    1    3   -0.041955   -0.000000
   -1    2   -2    2    3    0.000956    0.000000
   -1    2   -2    3    3    0.008734    0.000000
   -1    2   -2    4    3   -0.017739   -0.000000
   -1    2   -2    1    4    0.000956   -0.000000
   -1    2   -2    2    4   -0.034143   -0.000000
   -1    2   -2    3    4    0.000956   -0.000000
   -1    2   -2    4    4   -0.089048   -0.000000
   -1    2   -1    1    1   -0.013378    0.000000
   -1    2   -1    2    1    0.023684    0.000000
   -1    2   -1    3    1    0.018927   -0.000000
   -1    2   -1    4    1    0.018927   -0.000000
   -1    2   -1    1    2   -0.055269    0.000000
   -1    2   -1    2    2    0.055497   -0.000000
   -1    2   -1    3    2    0.000956   -0.000000
   -1    2   -1    4    2    0.000956   -0.000000
   -1    2   -1    1    3    0.163832    0.000000
   -1    2   -1    2    3    0.102062   -0.000000
   -1    2   -1    3    3   -0.060535    0.000000
   -1    2   -1    4    3   -0.011610    0.000000
   -1    2   -1    1    4    0.163832    0.000000
   -1    2   -1    2    4    0.102062    0.000000
   -1    2   -1    3    4   -0.011610   -0.000000
   -1    2   -1    4    4   -0.060535   -0.000000
   -1    2    0    1    1   -0.013378   -0.000000
   -1    2    0    2    1    0.018927    0.000000
   -1    2    0    3    1    0.023684    0.000000
   -1    2    0    4    1    0.018927   -0.000000
   -1    2    0    1    2    0.163832    0.000000
   -1    2    0    2    2   -0.060535   -0.000000
   -1    2    0    3    2    0.102062   -0.000000
   -1    2    0    4    2   -0.011610   -0.000000
   -1    2    0    1    3   -0.055269    0.000000
   -1    2    0    2    3    0.000956   -0.000000
   -1    2    0    3    3    0.055497   -0.000000
   -1    2    0    4    3    0.000956   -0.000000
   -1    2    0    1    4    0.163832    0.000000
   -1    2    0    2    4   -0.011610    0.000000
   -1    2    0    3    4    0.102062    0.000000
   -1    2    0    4    4   -0.060535   -0.000000
   -1    2    1    1    1    0.008734   -0.000000
   -1    2    1    2    1   -0.041955   -0.000000
   -1    2    1    3    1    0.000956    0.000000
   -1    2    1    4    1   -0.017739   -0.000000
   -1    2    1    1    2   -0.041955   -0.000000
   -1    2    1    2    2    0.008734   -0.000000
   -1    2    1    3    2    0.000956    0.000000
   -1    2    1    4    2   -0.017739   -0.000000
   -1    2    1    1    3   -0.017739    0.000000
   -1    2    1    2    3   -0.017739   -0.000000
   -1    2    1    3    3   -0.089048   -0.000000
   -1    2    1    4    3   -0.024738    0.000000
   -1    2    1    1    4    0.000956    0.000000
   -1    2    1    2    4    0.000956   -0.000000
   -1    2    1    3    4   -0.034143   -0.000000
   -1    2    1    4    4   -0.089048   -0.000000
   -1    3   -1    1    1    0.129609   -0.000000
   -1    3   -1    2    1    0.023684   -0.000000
   -1    3   -1    3    1    0.023684   -0.000000
   -1    3   -1    4    1    0.023684   -0.000000
   -1    3   -1    1    2    0.023684   -0.000000
   -1    3   -1    2    2    0.129609    0.000000
   -1    3   -1    3    2    0.023684   -0.000000
   -1    3   -1    4    2    0.023684   -0.000000
   -1    3   -1    1    3    0.023684   -0.000000
   -1    3   -1    2    3    0.023684   -0.000000
   -1    3   -1    3    3    0.129609    0.000000
   -1    3   -1    4    3    0.023684   -0.000000
   -1    3   -1    1    4    0.023684   -0.000000
   -1    3   -1    2    4    0.023684   -0.000000
   -1    3   -1    3    4    0.023684   -0.000000
   -1    3   -1    4    4    0.129609    0.000000
    0   -2    0    1    1   -0.218552    0.000000
    0   -2    0    2    1   -0.512256    0.000000
    0   -2    0    3    1   -0.011611    0.000000
    0   -2    0    4    1   -0.011611    0.000000
    0   -2    0    1    2   -0.512256   -0.000000
    0   -2    0    2    2   -0.218552    0.000000
    0   -2    0    3    2   -0.011611    0.000000
    0   -2    0    4    2   -0.011611    0.000000
    0   -2    0    1    3   -0.011611   -0.000000
    0   -2    0    2    3   -0.011611   -0.000000
    0   -2    0    3    3    0.184115    0.000000
    0   -2    0    4    3   -0.034143    0.000000
    0   -2    0    1    4   -0.011611   -0.000000
    0   -2    0    2    4   -0.011611   -0.000000
    0   -2    0    3    4   -0.034143   -0.000000
    0   -2    0    4    4    0.184115    0.000000
    0   -2    1    1    1   -0.013378    0.000000
    0   -2    1    2    1    0.163832   -0.000000
    0   -2    1    3    1    0.163832   -0.000000
    0   -2    1    4    1   -0.055269   -0.000000
    0   -2    1    1    2    0.018927    0.000000
    0   -2    1    2    2   -0.060535   -0.000000
    0   -2    1    3    2   -0.011610    0.000000
    0   -2    1    4    2    0.000956    0.000000
    0   -2    1    1    3    0.018927   -0.000000
    0   -2    1    2    3   -0.011610    0.000000
    0   -2    1    3    3   -0.060535   -0.000000
    0   -2    1    4    3    0.000956    0.000000
    0   -2    1    1    4    0.023684   -0.000000
    0   -2    1    2    4    0.102062    0.000000
    0   -2    1    3    4    0.102062    0.000000
    0   -2    1    4    4    0.055497   -0.000000
    0   -2    2    1    1   -0.218552    0.000000
    0   -2    2    2    1   -0.011611   -0.000000
    0   -2    2    3    1   -0.512256   -0.000000
    0   -2    2    4    1   -0.011611   -0.000000
    0   -2    2    1    2   -0.011611    0.000000
    0   -2    2    2    2    0.184115    0.000000
    0   -2    2    3    2   -0.011611    0.000000
    0   -2    2    4    2   -0.034143    0.000000
    0   -2    2    1    3   -0.512256    0.000000
    0   -2    2    2    3   -0.011611   -0.000000
    0   -2    2    3    3   -0.218552   -0.000000
    0   -2    2    4    3   -0.011611   -0.000000
    0   -2    2    1    4   -0.011611    0.000000
    0   -2    2    2    4   -0.034143   -0.000000
    0   -2    2    3    4   -0.011611    0.000000
    0   -2    2    4    4    0.184115   -0.000000
    0   -1   -1    1    1   -0.060535   -0.000000
    0   -1   -1    2    1    0.163832    0.000000
    0   -1   -1    3    1   -0.011610   -0.000000
    0   -1   -1    4    1    0.102062   -0.000000
    0   -1   -1    1    2    0.018927    0.000000
    0   -1   -1    2    2   -0.013378   -0.000000
    0   -1   -1    3    2    0.018927   -0.000000
    0   -1   -1    4    2    0.023684    0.000000
    0   -1   -1    1    3   -0.011610   -0.000000
    0   -1   -1    2    3    0.163832    0.000000
    0   -1   -1    3    3   -0.060535    0.000000
    0   -1   -1    4    3    0.102062   -0.000000
    0   -1   -1    1    4    0.000956    0.000000
    0   -1   -1    2    4   -0.055269    0.000000
    0   -1   -1    3    4    0.000956   -0.000000
    0   -1   -1    4    4    0.055497    0.000000
    0   -1    0    1    1   -0.267137    0.000000
    0   -1    0    2    1   -0.095568    0.000000
    0   -1    0    3    1    0.180518    0.000000
    0   -1    0    4    1    0.180518    0.000000
    0   -1    0    1    2   -0.512256   -0.000000
    0   -1    0    2    2   -0.267137   -0.000000
    0   -1    0    3    2    0.163832   -0.000000
    0   -1    0    4    2    0.163832   -0.000000
    0   -1    0    1    3    0.163832    0.000000
    0   -1    0    2    3    0.180518   -0.000000
    0   -1    0    3    3    0.096257    0.000000
    0   -1    0    4    3   -0.133407    0.000000
    0   -1    0    1    4    0.163832    0.000000
    0   -1    0    2    4    0.180518   -0.000000
    0   -1    0    3    4   -0.133407   -0.000000
    0   -1    0    4    4    0.096257   -0.000000
    0   -1    1    1    1   -0.267137   -0.000000
    0   -1    1    2    1    0.180518   -0.000000
    0   -1    1    3    1   -0.095568   -0.000000
    0   -1    1    4    1    0.180518    0.000000
    0   -1    1    1    2    0.163832    0.000000
    0   -1    1    2    2    0.096257   -0.000000
    0   -1    1    3    2    0.180518    0.000000
    0   -1    1    4    2   -0.133407   -0.000000
    0   -1    1    1    3   -0.512256    0.000000
    0   -1    1    2    3    0.163832   -0.000000
    0   -1    1    3    3   -0.267137   -0.000000
    0   -1    1    4    3    0.163832   -0.000000
    0   -1    1    1    4    0.163832    0.000000
    0   -1    1    2    4   -0.133407   -0.000000
    0   -1    1    3    4    0.180518    0.000000
    0   -1    1    4    4    0.096257   -0.000000
    0   -1    2    1    1   -0.060535   -0.000000
    0   -1    2    2    1   -0.011610   -0.000000
    0   -1    2    3    1    0.163832    0.000000
    0   -1    2    4    1    0.102062   -0.000000
    0   -1    2    1    2   -0.011610   -0.000000
    0   -1    2    2    2   -0.060535   -0.000000
    0   -1    2    3    2    0.163832    0.000000
    0   -1    2    4    2    0.102062    0.000000
    0   -1    2    1    3    0.018927    0.000000
    0   -1    2    2    3    0.018927    0.000000
    0   -1    2    3    3   -0.013378    0.000000
    0   -1    2    4    3    0.023684    0.000000
    0   -1    2    1    4    0.000956   -0.000000
    0   -1    2    2    4    0.000956   -0.000000
    0   -1    2    3    4   -0.055269    0.000000
    0   -1    2    4    4    0.055497   -0.000000
    0    0   -2    1    1    0.184115    0.000000
    0    0   -2    2    1   -0.011611   -0.000000
    0    0   -2    3    1   -0.011611   -0.000000
    0    0   -2    4    1   -0.034143    0.000000
    0    0   -2    1    2   -0.011611    0.000000
    0    0   -2    2    2   -0.218552    0.000000
    0    0   -2    3    2   -0.512256   -0.000000
    0    0   -2    4    2   -0.011611    0.000000
    0    0   -2    1    3   -0.011611    0.000000
    0    0   -2    2    3   -0.512256    0.000000
    0    0   -2    3    3   -0.218552    0.000000
    0    0   -2    4    3   -0.011611    0.000000
    0    0   -2    1    4   -0.034143   -0.000000
    0    0   -2    2    4   -0.011611   -0.000000
    0    0   -2    3    4   -0.011611   -0.000000
    0    0   -2    4    4    0.184115    0.000000
    0    0   -1    1    1    0.096257   -0.000000
    0    0   -1    2    1    0.180518   -0.000000
    0    0   -1    3    1    0.163832    0.000000
    0    0   -1    4    1   -0.133407    0.000000
    0    0   -1    1    2    0.163832   -0.000000
    0    0   -1    2    2   -0.267137   -0.000000
    0    0   -1    3    2   -0.512256   -0.000000
    0    0   -1    4    2    0.163832   -0.000000
    0    0   -1    1    3    0.180518   -0.000000
    0    0   -1    2    3   -0.095568    0.000000
    0    0   -1    3    3   -0.267137    0.000000
    0    0   -1    4    3    0.180518   -0.000000
    0    0   -1    1    4   -0.133407   -0.000000
    0    0   -1    2    4    0.180518   -0.000000
    0    0   -1    3    4    0.163832    0.000000
    0    0   -1    4    4    0.096257   -0.000000
    0    0    0    1    1   10.658211    0.000000
    0    0    0    2    1   -0.095568   -0.000000
    0    0    0    3    1   -0.095568   -0.000000
    0    0    0    4    1   -0.095568   -0.000000
    0    0    0    1    2   -0.095568    0.000000
    0    0    0    2    2   10.658211    0.000000
    0    0    0    3    2   -0.095568    0.000000
    0    0    0    4    2   -0.095568    0.000000
    0    0    0    1    3   -0.095568    0.000000
    0    0    0    2    3   -0.095568   -0.000000
    0    0    0    3    3   10.658211    0.000000
    0    0    0    4    3   -0.095568    0.000000
    0    0    0    1    4   -0.095568    0.000000
    0    0    0    2    4   -0.095568   -0.000000
    0    0    0    3    4   -0.095568   -0.000000
    0    0    0    4    4   10.658211   -0.000000
    0    0    1    1    1    0.096257    0.000000
    0    0    1    2    1    0.163832    0.000000
    0    0    1    3    1    0.180518    0.000000
    0    0    1    4    1   -0.133407    0.000000
    0    0    1    1    2    0.180518    0.000000
    0    0    1    2    2   -0.267137    0.000000
    0    0    1    3    2   -0.095568   -0.000000
    0    0    1    4    2    0.180518    0.000000
    0    0    1    1    3    0.163832   -0.000000
    0    0    1    2    3   -0.512256    0.000000
    0    0    1    3    3   -0.267137   -0.000000
    0    0    1    4    3    0.163832   -0.000000
    0    0    1    1    4   -0.133407   -0.000000
    0    0    1    2    4    0.163832    0.000000
    0    0    1    3    4    0.180518    0.000000
    0    0    1    4    4    0.096257    0.000000
    0    0    2    1    1    0.184115   -0.000000
    0    0    2    2    1   -0.011611   -0.000000
    0    0    2    3    1   -0.011611   -0.000000
    0    0    2    4    1   -0.034143    0.000000
    0    0    2    1    2   -0.011611    0.000000
    0    0    2    2    2   -0.218552   -0.000000
    0    0    2    3    2   -0.512256   -0.000000
    0    0    2    4    2   -0.011611    0.000000
    0    0    2    1    3   -0.011611    0.000000
    0    0    2    2    3   -0.512256    0.000000
    0    0    2    3    3   -0.218552   -0.000000
    0    0    2    4    3   -0.011611    0.000000
    0    0    2    1    4   -0.034143   -0.000000
    0    0    2    2    4   -0.011611   -0.000000
    0    0    2    3    4   -0.011611   -0.000000
    0    0    2    4    4    0.184115   -0.000000
    0    1   -2    1    1   -0.060535    0.000000
    0    1   -2    2    1   -0.011610    0.000000
    0    1   -2    3    1    0.018927   -0.000000
    0    1   -2    4    1    0.000956    0.000000
    0    1   -2    1    2   -0.011610    0.000000
    0    1   -2    2    2   -0.060535    0.000000
    0    1   -2    3    2    0.018927   -0.000000
    0    1   -2    4    2    0.000956    0.000000
    0    1   -2    1    3    0.163832   -0.000000
    0    1   -2    2    3    0.163832   -0.000000
    0    1   -2    3    3   -0.013378   -0.000000
    0    1   -2    4    3   -0.055269   -0.000000
    0    1   -2    1    4    0.102062    0.000000
    0    1   -2    2    4    0.102062   -0.000000
    0    1   -2    3    4    0.023684   -0.000000
    0    1   -2    4    4    0.055497    0.000000
    0    1   -1    1    1   -0.267137    0.000000
    0    1   -1    2    1    0.163832   -0.000000
    0    1   -1    3    1   -0.512256   -0.000000
    0    1   -1    4    1    0.163832   -0.000000
    0    1   -1    1    2    0.180518    0.000000
    0    1   -1    2    2    0.096257    0.000000
    0    1   -1    3    2    0.163832    0.000000
    0    1   -1    4    2   -0.133407    0.000000
    0    1   -1    1    3   -0.095568    0.000000
    0    1   -1    2    3    0.180518   -0.000000
    0    1   -1    3    3   -0.267137    0.000000
    0    1   -1    4    3    0.180518   -0.000000
    0    1   -1    1    4    0.180518   -0.000000
    0    1   -1    2    4   -0.133407    0.000000
    0    1   -1    3    4    0.163832    0.000000
    0    1   -1    4    4    0.096257    0.000000
    0    1    0    1    1   -0.267137   -0.000000
    0    1    0    2    1   -0.512256    0.000000
    0    1    0    3    1    0.163832   -0.000000
    0    1    0    4    1    0.163832   -0.000000
    0    1    0    1    2   -0.095568   -0.000000
    0    1    0    2    2   -0.267137    0.000000
    0    1    0    3    2    0.180518    0.000000
    0    1    0    4    2    0.180518    0.000000
    0    1    0    1    3    0.180518   -0.000000
    0    1    0    2    3    0.163832    0.000000
    0    1    0    3    3    0.096257   -0.000000
    0    1    0    4    3   -0.133407    0.000000
    0    1    0    1    4    0.180518   -0.000000
    0    1    0    2    4    0.163832    0.000000
    0    1    0    3    4   -0.133407   -0.000000
    0    1    0    4    4    0.096257    0.000000
    0    1    1    1    1   -0.060535    0.000000
    0    1    1    2    1    0.018927   -0.000000
    0    1    1    3    1   -0.011610    0.000000
    0    1    1    4    1    0.000956   -0.000000
    0    1    1    1    2    0.163832   -0.000000
    0    1    1    2    2   -0.013378    0.000000
    0    1    1    3    2    0.163832   -0.000000
    0    1    1    4    2   -0.055269   -0.000000
    0    1    1    1    3   -0.011610    0.000000
    0    1    1    2    3    0.018927    0.000000
    0    1    1    3    3   -0.060535   -0.000000
    0    1    1    4    3    0.000956    0.000000
    0    1    1    1    4    0.102062    0.000000
    0    1    1    2    4    0.023684   -0.000000
    0    1    1    3    4    0.102062    0.000000
    0    1    1    4    4    0.055497   -0.000000
    0    2   -2    1    1   -0.218552   -0.000000
    0    2   -2    2    1   -0.011611   -0.000000
    0    2   -2    3    1   -0.512256   -0.000000
    0    2   -2    4    1   -0.011611   -0.000000
    0    2   -2    1    2   -0.011611    0.000000
    0    2   -2    2    2    0.184115    0.000000
    0    2   -2    3    2   -0.011611    0.000000
    0    2   -2    4    2   -0.034143    0.000000
    0    2   -2    1    3   -0.512256    0.000000
    0    2   -2    2    3   -0.011611   -0.000000
    0    2   -2    3    3   -0.218552    0.000000
    0    2   -2    4    3   -0.011611   -0.000000
    0    2   -2    1    4   -0.011611    0.000000
    0    2   -2    2    4   -0.034143   -0.000000
    0    2   -2    3    4   -0.011611    0.000000
    0    2   -2    4    4    0.184115   -0.000000
    0    2   -1    1    1   -0.013378   -0.000000
    0    2   -1    2    1    0.018927   -0.000000
    0    2   -1    3    1    0.018927    0.000000
    0    2   -1    4    1    0.023684    0.000000
    0    2   -1    1    2    0.163832    0.000000
    0    2   -1    2    2   -0.060535    0.000000
    0    2   -1    3    2   -0.011610   -0.000000
    0    2   -1    4    2    0.102062   -0.000000
    0    2   -1    1    3    0.163832    0.000000
    0    2   -1    2    3   -0.011610   -0.000000
    0    2   -1    3    3   -0.060535    0.000000
    0    2   -1    4    3    0.102062   -0.000000
    0    2   -1    1    4   -0.055269    0.000000
    0    2   -1    2    4    0.000956   -0.000000
    0    2   -1    3    4    0.000956   -0.000000
    0    2   -1    4    4    0.055497    0.000000
    0    2    0    1    1   -0.218552   -0.000000
    0    2    0    2    1   -0.512256    0.000000
    0    2    0    3    1   -0.011611    0.000000
    0    2    0    4    1   -0.011611    0.000000
    0    2    0    1    2   -0.512256   -0.000000
    0    2    0    2    2   -0.218552   -0.000000
    0    2    0    3    2   -0.011611    0.000000
    0    2    0    4    2   -0.011611    0.000000
    0    2    0    1    3   -0.011611   -0.000000
    0    2    0    2    3   -0.011611   -0.000000
    0    2    0    3    3    0.184115   -0.000000
    0    2    0    4    3   -0.034143    0.000000
    0    2    0    1    4   -0.011611   -0.000000
    0    2    0    2    4   -0.011611   -0.000000
    0    2    0    3    4   -0.034143   -0.000000
    0    2    0    4    4    0.184115   -0.000000
    1   -3    1    1    1    0.129609    0.000000
    1   -3    1    2    1    0.023684    0.000000
    1   -3    1    3    1    0.023684    0.000000
    1   -3    1    4    1    0.023684    0.000000
    1   -3    1    1    2    0.023684    0.000000
    1   -3    1    2    2    0.129609   -0.000000
    1   -3    1    3    2    0.023684    0.000000
    1   -3    1    4    2    0.023684    0.000000
    1   -3    1    1    3    0.023684    0.000000
    1   -3    1    2    3    0.023684    0.000000
    1   -3    1    3    3    0.129609   -0.000000
    1   -3    1    4    3    0.023684    0.000000
    1   -3    1    1    4    0.023684    0.000000
    1   -3    1    2    4    0.023684    0.000000
    1   -3    1    3    4    0.023684    0.000000
    1   -3    1    4    4    0.129609   -0.000000
    1   -2   -1    1    1    0.008734    0.000000
    1   -2   -1    2    1   -0.041955    0.000000
    1   -2   -1    3    1   -0.017739   -0.000000
    1   -2   -1    4    1    0.000956   -0.000000
    1   -2   -1    1    2   -0.041955    0.000000
    1   -2   -1    2    2    0.008734    0.000000
    1   -2   -1    3    2   -0.017739    0.000000
    1   -2   -1    4    2    0.000956    0.000000
    1   -2   -1    1    3    0.000956   -0.000000
    1   -2   -1    2    3    0.000956   -0.000000
    1   -2   -1    3    3   -0.089048    0.000000
    1   -2   -1    4    3   -0.034143    0.000000
    1   -2   -1    1    4   -0.017739    0.000000
    1   -2   -1    2    4   -0.017739    0.000000
    1   -2   -1    3    4   -0.024738   -0.000000
    1   -2   -1    4    4   -0.089048    0.000000
    1   -2    0    1    1   -0.013378    0.000000
    1   -2    0    2    1    0.163832   -0.000000
    1   -2    0    3    1   -0.055269   -0.000000
    1   -2    0    4    1    0.163832   -0.000000
    1   -2    0    1    2    0.018927   -0.000000
    1   -2    0    2    2   -0.060535    0.000000
    1   -2    0    3    2    0.000956    0.000000
    1   -2    0    4    2   -0.011610   -0.000000
    1   -2    0    1    3    0.023684   -0.000000
    1   -2    0    2    3    0.102062    0.000000
    1   -2    0    3    3    0.055497    0.000000
    1   -2    0    4    3    0.102062   -0.000000
    1   -2    0    1    4    0.018927    0.000000
    1   -2    0    2    4   -0.011610    0.000000
    1   -2    0    3    4    0.000956    0.000000
    1   -2    0    4    4   -0.060535    0.000000
    1   -2    1    1    1   -0.013378   -0.000000
    1   -2    1    2    1   -0.055269   -0.000000
    1   -2    1    3    1    0.163832   -0.000000
    1   -2    1    4    1    0.163832   -0.000000
    1   -2    1    1    2    0.023684   -0.000000
    1   -2    1    2    2    0.055497    0.000000
    1   -2    1    3    2    0.102062    0.000000
    1   -2    1    4    2    0.102062   -0.000000
    1   -2    1    1    3    0.018927    0.000000
    1   -2    1    2    3    0.000956    0.000000
    1   -2    1    3    3   -0.060535   -0.000000
    1   -2    1    4    3   -0.011610    0.000000
    1   -2    1    1    4    0.018927    0.000000
    1   -2    1    2    4    0.000956    0.000000
    1   -2    1    3    4   -0.011610   -0.000000
    1   -2    1    4    4   -0.060535    0.000000
    1   -2    2    1    1    0.008734    0.000000
    1   -2    2    2    1   -0.017739    0.000000
    1   -2    2    3    1   -0.041955    0.000000
    1   -2    2    4    1    0.000956    0.000000
    1   -2    2    1    2    0.000956   -0.000000
    1   -2    2    2    2   -0.089048   -0.000000
    1   -2    2    3    2    0.000956   -0.000000
    1   -2    2    4    2   -0.034143    0.000000
    1   -2    2    1    3   -0.041955    0.000000
    1   -2    2    2    3   -0.017739    0.000000
    1   -2    2    3    3    0.008734   -0.000000
    1   -2    2    4    3    0.000956    0.000000
    1   -2    2    1    4   -0.017739    0.000000
    1   -2    2    2    4   -0.024738   -0.000000
    1   -2    2    3    4   -0.017739    0.000000
    1   -2    2    4    4   -0.089048    0.000000
    1   -1   -2    1    1   -0.089048    0.000000
    1   -1   -2    2    1    0.000956   -0.000000
    1   -1   -2    3    1    0.000956   -0.000000
    1   -1   -2    4    1   -0.034143    0.000000
    1   -1   -2    1    2   -0.017739   -0.000000
    1   -1   -2    2    2    0.008734    0.000000
    1   -1   -2    3    2   -0.041955    0.000000
    1   -1   -2    4    2    0.000956    0.000000
    1   -1   -2    1    3   -0.017739    0.000000
    1   -1   -2    2    3   -0.041955    0.000000
    1   -1   -2    3    3    0.008734    0.000000
    1   -1   -2    4    3    0.000956    0.000000
    1   -1   -2    1    4   -0.024738   -0.000000
    1   -1   -2    2    4   -0.017739    0.000000
    1   -1   -2    3    4   -0.017739    0.000000
    1   -1   -2    4    4   -0.089048   -0.000000
    1   -1   -1    1    1    0.020808   -0.000000
    1   -1   -1    2    1   -0.133406   -0.000000
    1   -1   -1    3    1   -0.055269    0.000000
    1   -1   -1    4    1   -0.133406    0.000000
    1   -1   -1    1    2   -0.041955   -0.000000
    1   -1   -1    2    2    0.020808   -0.000000
    1   -1   -1    3    2   -0.041955   -0.000000
    1   -1   -1    4    2   -0.055269   -0.000000
    1   -1   -1    1    3   -0.055269    0.000000
    1   -1   -1    2    3   -0.133406    0.000000
    1   -1   -1    3    3    0.020808   -0.000000
    1   -1   -1    4    3   -0.133406    0.000000
    1   -1   -1    1    4   -0.041955   -0.000000
    1   -1   -1    2    4   -0.055269   -0.000000
    1   -1   -1    3    4   -0.041955   -0.000000
    1   -1   -1    4    4    0.020808   -0.000000
    1   -1    0    1    1   -0.267137   -0.000000
    1   -1    0    2    1    0.180518   -0.000000
    1   -1    0    3    1    0.180518    0.000000
    1   -1    0    4    1   -0.095568    0.000000
    1   -1    0    1    2    0.163832    0.000000
    1   -1    0    2    2    0.096257   -0.000000
    1   -1    0    3    2   -0.133407    0.000000
    1   -1    0    4    2    0.180518   -0.000000
    1   -1    0    1    3    0.163832    0.000000
    1   -1    0    2    3   -0.133407    0.000000
    1   -1    0    3    3    0.096257    0.000000
    1   -1    0    4    3    0.180518    0.000000
    1   -1    0    1    4   -0.512256   -0.000000
    1   -1    0    2    4    0.163832   -0.000000
    1   -1    0    3    4    0.163832   -0.000000
    1   -1    0    4    4   -0.267137    0.000000
    1   -1    1    1    1    0.020808    0.000000
    1   -1    1    2    1   -0.055269    0.000000
    1   -1    1    3    1   -0.133406   -0.000000
    1   -1    1    4    1   -0.133406    0.000000
    1   -1    1    1    2   -0.055269    0.000000
    1   -1    1    2    2    0.020808    0.000000
    1   -1    1    3    2   -0.133406   -0.000000
    1   -1    1    4    2   -0.133406    0.000000
    1   -1    1    1    3   -0.041955   -0.000000
    1   -1    1    2    3   -0.041955   -0.000000
    1   -1    1    3    3    0.020808    0.000000
    1   -1    1    4    3   -0.055269   -0.000000
    1   -1    1    1    4   -0.041955   -0.000000
    1   -1    1    2    4   -0.041955   -0.000000
    1   -1    1    3    4   -0.055269   -0.000000
    1   -1    1    4    4    0.020808   -0.000000
    1   -1    2    1    1   -0.089048    0.000000
    1   -1    2    2    1    0.000956   -0.000000
    1   -1    2    3    1    0.000956   -0.000000
    1   -1    2    4    1   -0.034143    0.000000
    1   -1    2    1    2   -0.017739   -0.000000
    1   -1    2    2    2    0.008734    0.000000
    1   -1    2    3    2   -0.041955    0.000000
    1   -1    2    4    2    0.000956    0.000000
    1   -1    2    1    3   -0.017739    0.000000
    1   -1    2    2    3   -0.041955    0.000000
    1   -1    2    3    3    0.008734    0.000000
    1   -1    2    4    3    0.000956    0.000000
    1   -1    2    1    4   -0.024738   -0.000000
    1   -1    2    2    4   -0.017739    0.000000
    1   -1    2    3    4   -0.017739    0.000000
    1   -1    2    4    4   -0.089048   -0.000000
    1    0   -2    1    1    0.055497   -0.000000
    1    0   -2    2    1    0.102062   -0.000000
    1    0   -2    3    1    0.023684   -0.000000
    1    0   -2    4    1    0.102062   -0.000000
    1    0   -2    1    2    0.000956    0.000000
    1    0   -2    2    2   -0.060535    0.000000
    1    0   -2    3    2    0.018927   -0.000000
    1    0   -2    4    2   -0.011610    0.000000
    1    0   -2    1    3   -0.055269   -0.000000
    1    0   -2    2    3    0.163832   -0.000000
    1    0   -2    3    3   -0.013378    0.000000
    1    0   -2    4    3    0.163832   -0.000000
    1    0   -2    1    4    0.000956    0.000000
    1    0   -2    2    4   -0.011610    0.000000
    1    0   -2    3    4    0.018927    0.000000
    1    0   -2    4    4   -0.060535   -0.000000
    1    0   -1    1    1    0.096257    0.000000
    1    0   -1    2    1   -0.133407    0.000000
    1    0   -1    3    1    0.163832    0.000000
    1    0   -1    4    1    0.180518   -0.000000
    1    0   -1    1    2   -0.133407    0.000000
    1    0   -1    2    2    0.096257    0.000000
    1    0   -1    3    2    0.163832    0.000000
    1    0   -1    4    2    0.180518    0.000000
    1    0   -1    1    3    0.180518    0.000000
    1    0   -1    2    3    0.180518   -0.000000
    1    0   -1    3    3   -0.267137    0.000000
    1    0   -1    4    3   -0.095568    0.000000
    1    0   -1    1    4    0.163832   -0.000000
    1    0   -1    2    4    0.163832   -0.000000
    1    0   -1    3    4   -0.512256   -0.000000
    1    0   -1    4    4   -0.267137   -0.000000
    1    0    0    1    1    0.096257    0.000000
    1    0    0    2    1    0.163832    0.000000
    1    0    0    3    1   -0.133407   -0.000000
    1    0    0    4    1    0.180518   -0.000000
    1    0    0    1    2    0.180518    0.000000
    1    0    0    2    2   -0.267137   -0.000000
    1    0    0    3    2    0.180518    0.000000
    1    0    0    4    2   -0.095568   -0.000000
    1    0    0    1    3   -0.133407    0.000000
    1    0    0    2    3    0.163832    0.000000
    1    0    0    3    3    0.096257   -0.000000
    1    0    0    4    3    0.180518    0.000000
    1    0    0    1    4    0.163832   -0.000000
    1    0    0    2    4   -0.512256    0.000000
    1    0    0    3    4    0.163832   -0.000000
    1    0    0    4    4   -0.267137    0.000000
    1    0    1    1    1    0.055497   -0.000000
    1    0    1    2    1    0.023684   -0.000000
    1    0    1    3    1    0.102062   -0.000000
    1    0    1    4    1    0.102062   -0.000000
    1    0    1    1    2   -0.055269   -0.000000
    1    0    1    2    2   -0.013378   -0.000000
    1    0    1    3    2    0.163832   -0.000000
    1    0    1    4    2    0.163832   -0.000000
    1    0    1    1    3    0.000956    0.000000
    1    0    1    2    3    0.018927    0.000000
    1    0    1    3    3   -0.060535   -0.000000
    1    0    1    4    3   -0.011610    0.000000
    1    0    1    1    4    0.000956    0.000000
    1    0    1    2    4    0.018927    0.000000
    1    0    1    3    4   -0.011610    0.000000
    1    0    1    4    4   -0.060535    0.000000
    1    1   -3    1    1    0.129609    0.000000
    1    1   -3    2    1    0.023684    0.000000
    1    1   -3    3    1    0.023684    0.000000
    1    1   -3    4    1    0.023684    0.000000
    1    1   -3    1    2    0.023684    0.000000
    1    1   -3    2    2    0.129609   -0.000000
    1    1   -3    3    2    0.023684    0.000000
    1    1   -3    4    2    0.023684    0.000000
    1    1   -3    1    3    0.023684    0.000000
    1    1   -3    2    3    0.023684    0.000000
    1    1   -3    3    3    0.129609   -0.000000
    1    1   -3    4    3    0.023684    0.000000
    1    1   -3    1    4    0.023684    0.000000
    1    1   -3    2    4    0.023684    0.000000
    1    1   -3    3    4    0.023684    0.000000
    1    1   -3    4    4    0.129609   -0.000000
    1    1   -2    1    1   -0.060535   -0.000000
    1    1   -2    2    1    0.000956    0.000000
    1    1   -2    3    1    0.018927   -0.000000
    1    1   -2    4    1   -0.011610    0.000000
    1    1   -2    1    2    0.102062    0.000000
    1    1   -2    2    2    0.055497    0.000000
    1    1   -2    3    2    0.023684   -0.000000
    1    1   -2    4    2    0.102062   -0.000000
    1    1   -2    1    3    0.163832   -0.000000
    1    1   -2    2    3   -0.055269   -0.000000
    1    1   -2    3    3   -0.013378    0.000000
    1    1   -2    4    3    0.163832   -0.000000
    1    1   -2    1    4   -0.011610   -0.000000
    1    1   -2    2    4    0.000956    0.000000
    1    1   -2    3    4    0.018927   -0.000000
    1    1   -2    4    4   -0.060535   -0.000000
    1    1   -1    1    1    0.020808    0.000000
    1    1   -1    2    1   -0.041955   -0.000000
    1    1   -1    3    1   -0.041955   -0.000000
    1    1   -1    4    1   -0.055269   -0.000000
    1    1   -1    1    2   -0.133406   -0.000000
    1    1   -1    2    2    0.020808   -0.000000
    1    1   -1    3    2   -0.055269    0.000000
    1    1   -1    4    2   -0.133406    0.000000
    1    1   -1    1    3   -0.133406   -0.000000
    1    1   -1    2    3   -0.055269    0.000000
    1    1   -1    3    3    0.020808   -0.000000
    1    1   -1    4    3   -0.133406    0.000000
    1    1   -1    1    4   -0.055269   -0.000000
    1    1   -1    2    4   -0.041955   -0.000000
    1    1   -1    3    4   -0.041955   -0.000000
    1    1   -1    4    4    0.020808   -0.000000
    1    1    0    1    1   -0.060535   -0.000000
    1    1    0    2    1    0.018927   -0.000000
    1    1    0    3    1    0.000956    0.000000
    1    1    0    4    1   -0.011610   -0.000000
    1    1    0    1    2    0.163832   -0.000000
    1    1    0    2    2   -0.013378   -0.000000
    1    1    0    3    2   -0.055269   -0.000000
    1    1    0    4    2    0.163832   -0.000000
    1    1    0    1    3    0.102062   -0.000000
    1    1    0    2    3    0.023684   -0.000000
    1    1    0    3    3    0.055497    0.000000
    1    1    0    4    3    0.102062   -0.000000
    1    1    0    1    4   -0.011610   -0.000000
    1    1    0    2    4    0.018927    0.000000
    1    1    0    3    4    0.000956    0.000000
    1    1    0    4    4   -0.060535    0.000000
    1    1    1    1    1    0.129609    0.000000
    1    1    1    2    1    0.023684    0.000000
    1    1    1    3    1    0.023684    0.000000
    1    1    1    4    1    0.023684    0.000000
    1    1    1    1    2    0.023684    0.000000
    1    1    1    2    2    0.129609   -0.000000
    1    1    1    3    2    0.023684    0.000000
    1    1    1    4    2    0.023684    0.000000
    1    1    1    1    3    0.023684    0.000000
    1    1    1    2    3    0.023684    0.000000
    1    1    1    3    3    0.129609   -0.000000
    1    1    1    4    3    0.023684    0.000000
    1    1    1    1    4    0.023684    0.000000
    1    1    1    2    4    0.023684    0.000000
    1    1    1    3    4    0.023684    0.000000
    1    1    1    4    4    0.129609   -0.000000
    1    2   -2    1    1    0.008734    0.000000
    1    2   -2    2    1   -0.017739    0.000000
    1    2   -2    3    1   -0.041955    0.000000
    1    2   -2    4    1    0.000956    0.000000
    1    2   -2    1    2    0.000956   -0.000000
    1    2   -2    2    2   -0.089048   -0.000000
    1    2   -2    3    2    0.000956   -0.000000
    1    2   -2    4    2   -0.034143    0.000000
    1    2   -2    1    3   -0.041955    0.000000
    1    2   -2    2    3   -0.017739    0.000000
    1    2   -2    3    3    0.008734   -0.000000
    1    2   -2    4    3    0.000956    0.000000
    1    2   -2    1    4   -0.017739    0.000000
    1    2   -2    2    4   -0.024738   -0.000000
    1    2   -2    3    4   -0.017739    0.000000
    1    2   -2    4    4   -0.089048    0.000000
    1    2   -1    1    1    0.008734    0.000000
    1    2   -1    2    1   -0.041955    0.000000
    1    2   -1    3    1   -0.017739   -0.000000
    1    2   -1    4    1    0.000956   -0.000000
    1    2   -1    1    2   -0.041955    0.000000
    1    2   -1    2    2    0.008734    0.000000
    1    2   -1    3    2   -0.017739    0.000000
    1    2   -1    4    2    0.000956    0.000000
    1    2   -1    1    3    0.000956   -0.000000
    1    2   -1    2    3    0.000956   -0.000000
    1    2   -1    3    3   -0.089048    0.000000
    1    2   -1    4    3   -0.034143    0.000000
    1    2   -1    1    4   -0.017739    0.000000
    1    2   -1    2    4   -0.017739    0.000000
    1    2   -1    3    4   -0.024738   -0.000000
    1    2   -1    4    4   -0.089048    0.000000
    2   -2   -2    1    1    0.050284   -0.000000
    2   -2   -2    2    1   -0.024739   -0.000000
    2   -2   -2    3    1   -0.024739   -0.000000
    2   -2   -2    4    1   -0.024739    0.000000
    2   -2   -2    1    2   -0.024739    0.000000
    2   -2   -2    2    2    0.050284    0.000000
    2   -2   -2    3    2   -0.024739   -0.000000
    2   -2   -2    4    2   -0.024739    0.000000
    2   -2   -2    1    3   -0.024739    0.000000
    2   -2   -2    2    3   -0.024739    0.000000
    2   -2   -2    3    3    0.050284    0.000000
    2   -2   -2    4    3   -0.024739    0.000000
    2   -2   -2    1    4   -0.024739   -0.000000
    2   -2   -2    2    4   -0.024739   -0.000000
    2   -2   -2    3    4   -0.024739   -0.000000
    2   -2   -2    4    4    0.050284   -0.000000
    2   -2   -1    1    1    0.008734    0.000000
    2   -2   -1    2    1    0.000956    0.000000
    2   -2   -1    3    1   -0.017739   -0.000000
    2   -2   -1    4    1   -0.041955    0.000000
    2   -2   -1    1    2   -0.017739   -0.000000
    2   -2   -1    2    2   -0.089048   -0.000000
    2   -2   -1    3    2   -0.024738    0.000000
    2   -2   -1    4    2   -0.017739   -0.000000
    2   -2   -1    1    3    0.000956   -0.000000
    2   -2   -1    2    3   -0.034143   -0.000000
    2   -2   -1    3    3   -0.089048   -0.000000
    2   -2   -1    4    3    0.000956   -0.000000
    2   -2   -1    1    4   -0.041955   -0.000000
    2   -2   -1    2    4    0.000956    0.000000
    2   -2   -1    3    4   -0.017739    0.000000
    2   -2   -1    4    4    0.008734   -0.000000
    2   -2    0    1    1   -0.218552    0.000000
    2   -2    0    2    1   -0.011611   -0.000000
    2   -2    0    3    1   -0.011611   -0.000000
    2   -2    0    4    1   -0.512256    0.000000
    2   -2    0    1    2   -0.011611    0.000000
    2   -2    0    2    2    0.184115   -0.000000
    2   -2    0    3    2   -0.034143    0.000000
    2   -2    0    4    2   -0.011611    0.000000
    2   -2    0    1    3   -0.011611    0.000000
    2   -2    0    2    3   -0.034143   -0.000000
    2   -2    0    3    3    0.184115    0.000000
    2   -2    0    4    3   -0.011611    0.000000
    2   -2    0    1    4   -0.512256   -0.000000
    2   -2    0    2    4   -0.011611   -0.000000
    2   -2    0    3    4   -0.011611   -0.000000
    2   -2    0    4    4   -0.218552    0.000000
    2   -2    1    1    1    0.008734   -0.000000
    2   -2    1    2    1   -0.017739    0.000000
    2   -2    1    3    1    0.000956    0.000000
    2   -2    1    4    1   -0.041955    0.000000
    2   -2    1    1    2    0.000956   -0.000000
    2   -2    1    2    2   -0.089048    0.000000
    2   -2    1    3    2   -0.034143    0.000000
    2   -2    1    4    2    0.000956   -0.000000
    2   -2    1    1    3   -0.017739    0.000000
    2   -2    1    2    3   -0.024738   -0.000000
    2   -2    1    3    3   -0.089048    0.000000
    2   -2    1    4    3   -0.017739   -0.000000
    2   -2    1    1    4   -0.041955   -0.000000
    2   -2    1    2    4   -0.017739    0.000000
    2   -2    1    3    4    0.000956    0.000000
    2   -2    1    4    4    0.008734    0.000000
    2   -2    2    1    1    0.050284   -0.000000
    2   -2    2    2    1   -0.024739   -0.000000
    2   -2    2    3    1   -0.024739   -0.000000
    2   -2    2    4    1   -0.024739    0.000000
    2   -2    2    1    2   -0.024739    0.000000
    2   -2    2    2    2    0.050284   -0.000000
    2   -2    2    3    2   -0.024739   -0.000000
    2   -2    2    4    2   -0.024739    0.000000
    2   -2    2    1    3   -0.024739    0.000000
    2   -2    2    2    3   -0.024739    0.000000
    2   -2    2    3    3    0.050284   -0.000000
    2   -2    2    4    3   -0.024739    0.000000
    2   -2    2    1    4   -0.024739   -0.000000
    2   -2    2    2    4   -0.024739   -0.000000
    2   -2    2    3    4   -0.024739   -0.000000
    2   -2    2    4    4    0.050284   -0.000000
    2   -1   -2    1    1   -0.089048    0.000000
    2   -1   -2    2    1   -0.034143    0.000000
    2   -1   -2    3    1    0.000956   -0.000000
    2   -1   -2    4    1    0.000956   -0.000000
    2   -1   -2    1    2   -0.024738    0.000000
    2   -1   -2    2    2   -0.089048    0.000000
    2   -1   -2    3    2   -0.017739   -0.000000
    2   -1   -2    4    2   -0.017739   -0.000000
    2   -1   -2    1    3   -0.017739    0.000000
    2   -1   -2    2    3    0.000956    0.000000
    2   -1   -2    3    3    0.008734    0.000000
    2   -1   -2    4    3   -0.041955    0.000000
    2   -1   -2    1    4   -0.017739    0.000000
    2   -1   -2    2    4    0.000956    0.000000
    2   -1   -2    3    4   -0.041955   -0.000000
    2   -1   -2    4    4    0.008734    0.000000
    2   -1   -1    1    1   -0.060535   -0.000000
    2   -1   -1    2    1    0.102062   -0.000000
    2   -1   -1    3    1   -0.011610    0.000000
    2   -1   -1    4    1    0.163832    0.000000
    2   -1   -1    1    2    0.000956   -0.000000
    2   -1   -1    2    2    0.055497   -0.000000
    2   -1   -1    3    2    0.000956   -0.000000
    2   -1   -1    4    2   -0.055269    0.000000
    2   -1   -1    1    3   -0.011610    0.000000
    2   -1   -1    2    3    0.102062   -0.000000
    2   -1   -1    3    3   -0.060535    0.000000
    2   -1   -1    4    3    0.163832    0.000000
    2   -1   -1    1    4    0.018927    0.000000
    2   -1   -1    2    4    0.023684    0.000000
    2   -1   -1    3    4    0.018927    0.000000
    2   -1   -1    4    4   -0.013378    0.000000
    2   -1    0    1    1   -0.060535    0.000000
    2   -1    0    2    1   -0.011610    0.000000
    2   -1    0    3    1    0.102062   -0.000000
    2   -1    0    4    1    0.163832    0.000000
    2   -1    0    1    2   -0.011610    0.000000
    2   -1    0    2    2   -0.060535   -0.000000
    2   -1    0    3    2    0.102062    0.000000
    2   -1    0    4    2    0.163832    0.000000
    2   -1    0    1    3    0.000956   -0.000000
    2   -1    0    2    3    0.000956   -0.000000
    2   -1    0    3    3    0.055497   -0.000000
    2   -1    0    4    3   -0.055269    0.000000
    2   -1    0    1    4    0.018927    0.000000
    2   -1    0    2    4    0.018927    0.000000
    2   -1    0    3    4    0.023684    0.000000
    2   -1    0    4    4   -0.013378    0.000000
    2   -1    1    1    1   -0.089048    0.000000
    2   -1    1    2    1    0.000956   -0.000000
    2   -1    1    3    1   -0.034143    0.000000
    2   -1    1    4    1    0.000956   -0.000000
    2   -1    1    1    2   -0.017739   -0.000000
    2   -1    1    2    2    0.008734   -0.000000
    2   -1    1    3    2    0.000956    0.000000
    2   -1    1    4    2   -0.041955   -0.000000
    2   -1    1    1    3   -0.024738   -0.000000
    2   -1    1    2    3   -0.017739    0.000000
    2   -1    1    3    3   -0.089048   -0.000000
    2   -1    1    4    3   -0.017739   -0.000000
    2   -1    1    1    4   -0.017739    0.000000
    2   -1    1    2    4   -0.041955   -0.000000
    2   -1    1    3    4    0.000956    0.000000
    2   -1    1    4    4    0.008734    0.000000
    2    0   -2    1    1    0.184115    0.000000
    2    0   -2    2    1   -0.034143    0.000000
    2    0   -2    3    1   -0.011611   -0.000000
    2    0   -2    4    1   -0.011611   -0.000000
    2    0   -2    1    2   -0.034143   -0.000000
    2    0   -2    2    2    0.184115    0.000000
    2    0   -2    3    2   -0.011611    0.000000
    2    0   -2    4    2   -0.011611   -0.000000
    2    0   -2    1    3   -0.011611    0.000000
    2    0   -2    2    3   -0.011611   -0.000000
    2    0   -2    3    3   -0.218552    0.000000
    2    0   -2    4    3   -0.512256    0.000000
    2    0   -2    1    4   -0.011611    0.000000
    2    0   -2    2    4   -0.011611    0.000000
    2    0   -2    3    4   -0.512256   -0.000000
    2    0   -2    4    4   -0.218552   -0.000000
    2    0   -1    1    1    0.055497    0.000000
    2    0   -1    2    1    0.000956   -0.000000
    2    0   -1    3    1    0.000956   -0.000000
    2    0   -1    4    1   -0.055269    0.000000
    2    0   -1    1    2    0.102062    0.000000
    2    0   -1    2    2   -0.060535    0.000000
    2    0   -1    3    2   -0.011610    0.000000
    2    0   -1    4    2    0.163832    0.000000
    2    0   -1    1    3    0.102062   -0.000000
    2    0   -1    2    3   -0.011610   -0.000000
    2    0   -1    3    3   -0.060535    0.000000
    2    0   -1    4    3    0.163832   -0.000000
    2    0   -1    1    4    0.023684    0.000000
    2    0   -1    2    4    0.018927    0.000000
    2    0   -1    3    4    0.018927    0.000000
    2    0   -1    4    4   -0.013378   -0.000000
    2    0    0    1    1    0.184115   -0.000000
    2    0    0    2    1   -0.011611    0.000000
    2    0    0    3    1   -0.034143    0.000000
    2    0    0    4    1   -0.011611   -0.000000
    2    0    0    1    2   -0.011611   -0.000000
    2    0    0    2    2   -0.218552   -0.000000
    2    0    0    3    2   -0.011611   -0.000000
    2    0    0    4    2   -0.512256   -0.000000
    2    0    0    1    3   -0.034143   -0.000000
    2    0    0    2    3   -0.011611    0.000000
    2    0    0    3    3    0.184115   -0.000000
    2    0    0    4    3   -0.011611    0.000000
    2    0    0    1    4   -0.011611    0.000000
    2    0    0    2    4   -0.512256    0.000000
    2    0    0    3    4   -0.011611   -0.000000
    2    0    0    4    4   -0.218552   -0.000000
    2    1   -2    1    1   -0.089048   -0.000000
    2    1   -2    2    1   -0.024738   -0.000000
    2    1   -2    3    1   -0.017739   -0.000000
    2    1   -2    4    1   -0.017739   -0.000000
    2    1   -2    1    2   -0.034143   -0.000000
    2    1   -2    2    2   -0.089048   -0.000000
    2    1   -2    3    2    0.000956   -0.000000
    2    1   -2    4    2    0.000956   -0.000000
    2    1   -2    1    3    0.000956    0.000000
    2    1   -2    2    3   -0.017739    0.000000
    2    1   -2    3    3    0.008734   -0.000000
    2    1   -2    4    3   -0.041955    0.000000
    2    1   -2    1    4    0.000956    0.000000
    2    1   -2    2    4   -0.017739    0.000000
    2    1   -2    3    4   -0.041955   -0.000000
    2    1   -2    4    4    0.008734   -0.000000
    2    1   -1    1    1   -0.089048   -0.000000
    2    1   -1    2    1   -0.017739    0.000000
    2    1   -1    3    1   -0.024738    0.000000
    2    1   -1    4    1   -0.017739   -0.000000
    2    1   -1    1    2    0.000956    0.000000
    2    1   -1    2    2    0.008734    0.000000
    2    1   -1    3    2   -0.017739   -0.000000
    2    1   -1    4    2   -0.041955    0.000000
    2    1   -1    1    3   -0.034143   -0.000000
    2    1   -1    2    3    0.000956   -0.000000
    2    1   -1    3    3   -0.089048    0.000000
    2    1   -1    4    3    0.000956   -0.000000
    2    1   -1    1    4    0.000956    0.000000
    2    1   -1    2    4   -0.041955    0.000000
    2    1   -1    3    4   -0.017739    0.000000
    2    1   -1    4    4    0.008734   -0.000000
    2    2   -2    1    1    0.050284   -0.000000
    2    2   -2    2    1   -0.024739   -0.000000
    2    2   -2    3    1   -0.024739   -0.000000
    2    2   -2    4    1   -0.024739    0.000000
    2    2   -2    1    2   -0.024739    0.000000
    2    2   -2    2    2    0.050284   -0.000000
    2    2   -2    3    2   -0.024739   -0.000000
    2    2   -2    4    2   -0.024739    0.000000
    2    2   -2    1    3   -0.024739    0.000000
    2    2   -2    2    3   -0.024739    0.000000
    2    2   -2    3    3    0.050284    0.000000
    2    2   -2    4    3   -0.024739    0.000000
    2    2   -2    1    4   -0.024739   -0.000000
    2    2   -2    2    4   -0.024739   -0.000000
    2    2   -2    3    4   -0.024739   -0.000000
    2    2   -2    4    4    0.050284   -0.000000
    3   -1   -1    1    1    0.129609   -0.000000
    3   -1   -1    2    1    0.023684   -0.000000
    3   -1   -1    3    1    0.023684   -0.000000
    3   -1   -1    4    1    0.023684   -0.000000
    3   -1   -1    1    2    0.023684   -0.000000
    3   -1   -1    2    2    0.129609    0.000000
    3   -1   -1    3    2    0.023684   -0.000000
    3   -1   -1    4    2    0.023684   -0.000000
    3   -1   -1    1    3    0.023684   -0.000000
    3   -1   -1    2    3    0.023684   -0.000000
    3   -1   -1    3    3    0.129609    0.000000
    3   -1   -1    4    3    0.023684   -0.000000
    3   -1   -1    1    4    0.023684   -0.000000
    3   -1   -1    2    4    0.023684   -0.000000
    3   -1   -1    3    4    0.023684   -0.000000
    3   -1   -1    4    4    0.129609    0.000000
