 
             +---------------------------------------------------+
             |                                                   |
             |                   WANNIER90                       |
             |                                                   |
             +---------------------------------------------------+
             |                                                   |
             |        Welcome to the Maximally-Localized         |
             |        Generalized Wannier Functions code         |
             |            http://www.wannier.org                 |
             |                                                   |
             |                                                   |
             |  Wannier90 Developer Group:                       |
             |    Giovanni Pizzi    (EPFL)                       |
             |    Valerio Vitale    (Cambridge)                  |
             |    David Vanderbilt  (Rutgers University)         |
             |    Nicola Marzari    (EPFL)                       |
             |    Ivo Souza         (Universidad del Pais Vasco) |
             |    Arash A. Mostofi  (Imperial College London)    |
             |    Jonathan R. Yates (University of Oxford)       |
             |                                                   |
             |  For the full list of Wannier90 3.x authors,      |
             |  please check the code documentation and the      |
             |  README on the GitHub page of the code            |
             |                                                   |
             |                                                   |
             |  Please cite                                      |
             |                                                   |
             |  [ref] "Wannier90 as a community code:            |
             |        new features and applications",            |
             |        G. Pizzi et al., J. Phys. Cond. Matt. 32,  |
             |        165902 (2020).                             |
             |        http://doi.org/10.1088/1361-648X/ab51ff    |
             |                                                   |
             |  in any publications arising from the use of      |
             |  this code. For the method please cite            |
             |                                                   |
             |  [ref] "Maximally Localized Generalised Wannier   |
             |         Functions for Composite Energy Bands"     |
             |         N. Marzari and D. Vanderbilt              |
             |         Phys. Rev. B 56 12847 (1997)              |
             |                                                   |
             |  [ref] "Maximally Localized Wannier Functions     |
             |         for Entangled Energy Bands"               |
             |         I. Souza, N. Marzari and D. Vanderbilt    |
             |         Phys. Rev. B 65 035109 (2001)             |
             |                                                   |
             |                                                   |
             | Copyright (c) 1996-2020                           |
             |        The Wannier90 Developer Group and          |
             |        individual contributors                    |
             |                                                   |
             |      Release: 3.1.0        5th March    2020      |
             |                                                   |
             | This program is free software; you can            |
             | redistribute it and/or modify it under the terms  |
             | of the GNU General Public License as published by |
             | the Free Software Foundation; either version 2 of |
             | the License, or (at your option) any later version|
             |                                                   |
             | This program is distributed in the hope that it   |
             | will be useful, but WITHOUT ANY WARRANTY; without |
             | even the implied warranty of MERCHANTABILITY or   |
             | FITNESS FOR A PARTICULAR PURPOSE. See the GNU     |
             | General Public License for more details.          |
             |                                                   |
             | You should have received a copy of the GNU General|
             | Public License along with this program; if not,   |
             | write to the Free Software Foundation, Inc.,      |
             | 675 Mass Ave, Cambridge, MA 02139, USA.           |
             |                                                   |
             +---------------------------------------------------+
             |    Execution started on 12Dec2022 at 11:54:41     |
             +---------------------------------------------------+
 
 ******************************************************************************
 * -> Using CODATA 2006 constant values                                       *
 *    (http://physics.nist.gov/cuu/Constants/index.html)                      *
 * -> Using Bohr value from CODATA                                            *
 ******************************************************************************
 

 Running in serial (with serial executable)
 
                                    ------
                                    SYSTEM
                                    ------
 
                              Lattice Vectors (Ang)
                    a_1     3.249450   0.000000   0.000000
                    a_2    -1.624725   2.814106   0.000000
                    a_3     0.000000   0.000000   5.205748
 
                   Unit Cell Volume:      47.60290  (Ang^3)
 
                        Reciprocal-Space Vectors (Ang^-1)
                    b_1     1.933615   1.116373   0.000000
                    b_2     0.000000   2.232747   0.000000
                    b_3     0.000000   0.000000   1.206971
  
 *----------------------------------------------------------------------------*
 |   Site       Fractional Coordinate          Cartesian Coordinate (Ang)     |
 +----------------------------------------------------------------------------+
 | Zn   1   0.33330   0.66670   0.50000   |   -0.00016   1.87616   2.60287    |
 | Zn   2   0.66670   0.33330   0.00000   |    1.62489   0.93794   0.00000    |
 | O    1   0.33330   0.66670   0.11725   |   -0.00016   1.87616   0.61037    |
 | O    2   0.66670   0.33330   0.61725   |    1.62489   0.93794   3.21325    |
 *----------------------------------------------------------------------------*
                                ------------
                                K-POINT GRID
                                ------------
  
             Grid size =  2 x  2 x  2      Total points =    8
  
  
 *---------------------------------- MAIN ------------------------------------*
 |  Number of Wannier Functions               :                 2             |
 |  Number of Objective Wannier Functions     :                 2             |
 |  Number of input Bloch states              :                26             |
 |  Output verbosity (1=low, 5=high)          :                 1             |
 |  Timing Level (1=low, 5=high)              :                 1             |
 |  Optimisation (0=memory, 3=speed)          :                 3             |
 |  Length Unit                               :               Ang             |
 |  Post-processing setup (write *.nnkp)      :                 F             |
 |  Using Gamma-only branch of algorithms     :                 F             |
 *----------------------------------------------------------------------------*
 *------------------------------- WANNIERISE ---------------------------------*
 |  Total number of iterations                :             10000             |
 |  Number of CG steps before reset           :                 5             |
 |  Trial step length for line search         :             2.000             |
 |  Convergence tolerence                     :         0.100E-07             |
 |  Convergence window                        :                 5             |
 |  Iterations between writing output         :                 1             |
 |  Iterations between backing up to disk     :               100             |
 |  Write r^2_nm to file                      :                 F             |
 |  Write xyz WF centres to file              :                 T             |
 |  Write on-site energies <0n|H|0n> to file  :                 F             |
 |  Use guiding centre to control phases      :                 T             |
 |  Use phases for initial projections        :                 F             |
 |  Iterations before starting guiding centres:                 0             |
 |  Iterations between using guiding centres  :                 1             |
 *----------------------------------------------------------------------------*
 *------------------------------- DISENTANGLE --------------------------------*
 |  Using band disentanglement                :                 T             |
 |  Total number of iterations                :              5000             |
 |  Mixing ratio                              :             0.500             |
 |  Convergence tolerence                     :         1.000E-10             |
 |  Convergence window                        :                 3             |
 *----------------------------------------------------------------------------*
 *-------------------------------- PLOTTING ----------------------------------*
 |  Plotting interpolated bandstructure       :                 T             |
 |   Number of K-path sections                :                 6             |
 |   Divisions along first K-path section     :               100             |
 |   Output format                            :           gnuplot             |
 |   Output mode                              :               s-k             |
 *----------------------------------------------------------------------------*
 |   K-space path sections:                                                   |
 |    From: A       0.000  0.000  0.500     To: L       0.500  0.000  0.500   |
 |    From: L       0.500  0.000  0.500     To: M       0.500  0.000  0.000   |
 |    From: M       0.500  0.000  0.000     To: G       0.000  0.000  0.000   |
 |    From: G       0.000  0.000  0.000     To: A       0.000  0.000  0.500   |
 |    From: A       0.000  0.000  0.500     To: H       0.333  0.333  0.500   |
 |    From: H       0.333  0.333  0.500     To: K       0.333  0.333  0.000   |
 *----------------------------------------------------------------------------*
 |  Plotting Hamiltonian in WF basis          :                 T             |
 *----------------------------------------------------------------------------*
 Time to read parameters        0.003 (sec)

 *---------------------------------- K-MESH ----------------------------------*
 +----------------------------------------------------------------------------+
 |                    Distance to Nearest-Neighbour Shells                    |
 |                    ------------------------------------                    |
 |          Shell             Distance (Ang^-1)          Multiplicity         |
 |          -----             -----------------          ------------         |
 |             1                   0.603485                      2            |
 |             2                   1.116373                      6            |
 |             3                   1.206971                      2            |
 |             4                   1.269048                     12            |
 |             5                   1.644101                     12            |
 |             6                   1.810456                      2            |
 |             7                   1.933615                      6            |
 |             8                   2.025602                     12            |
 |             9                   2.126979                     12            |
 |            10                   2.232747                      6            |
 |            11                   2.279396                     12            |
 |            12                   2.312867                     12            |
 |            13                   2.413941                      2            |
 |            14                   2.538097                     12            |
 |            15                   2.648890                     12            |
 |            16                   2.659587                     12            |
 |            17                   2.874527                     12            |
 |            18                   2.953646                     12            |
 |            19                   3.014667                     24            |
 |            20                   3.017427                      2            |
 |            21                   3.092892                     12            |
 |            22                   3.190737                     24            |
 |            23                   3.217321                     12            |
 |            24                   3.288202                     12            |
 |            25                   3.349120                      6            |
 |            26                   3.403057                     12            |
 |            27                   3.464358                     24            |
 |            28                   3.559969                     12            |
 |            29                   3.583815                     12            |
 |            30                   3.620912                      2            |
 |            31                   3.753668                     12            |
 |            32                   3.789102                     12            |
 |            33                   3.807145                     12            |
 |            34                   3.814595                     24            |
 |            35                   3.867230                      6            |
 |            36                   3.914034                     12            |
 +----------------------------------------------------------------------------+
 | The b-vectors are chosen automatically                                     |
 | The following shells are used:   1,  2                                     |
 +----------------------------------------------------------------------------+
 |                        Shell   # Nearest-Neighbours                        |
 |                        -----   --------------------                        |
 |                          1               2                                 |
 |                          2               6                                 |
 +----------------------------------------------------------------------------+
 | Completeness relation is fully satisfied [Eq. (B1), PRB 56, 12847 (1997)]  |
 +----------------------------------------------------------------------------+
 |                  b_k Vectors (Ang^-1) and Weights (Ang^2)                  |
 |                  ----------------------------------------                  |
 |            No.         b_k(x)      b_k(y)      b_k(z)        w_b           |
 |            ---        --------------------------------     --------        |
 |             1         0.000000    0.000000   -0.603485     1.372893        |
 |             2         0.000000    0.000000    0.603485     1.372893        |
 |             3         0.000000   -1.116373    0.000000     0.267461        |
 |             4        -0.966808   -0.558187    0.000000     0.267461        |
 |             5         0.966808    0.558187    0.000000     0.267461        |
 |             6         0.966808   -0.558187    0.000000     0.267461        |
 |             7         0.000000    1.116373    0.000000     0.267461        |
 |             8        -0.966808    0.558187    0.000000     0.267461        |
 +----------------------------------------------------------------------------+
 |                           b_k Directions (Ang^-1)                          |
 |                           -----------------------                          |
 |            No.           x           y           z                         |
 |            ---        --------------------------------                     |
 |             1         0.000000    0.000000   -0.603485                     |
 |             2         0.000000   -1.116373    0.000000                     |
 |             3        -0.966808   -0.558187    0.000000                     |
 |             4         0.966808   -0.558187    0.000000                     |
 +----------------------------------------------------------------------------+
  
 Time to get kmesh              0.009 (sec)
 *============================================================================*
 |                              MEMORY ESTIMATE                               |
 |         Maximum RAM allocated during each phase of the calculation         |
 *============================================================================*
 |                        Disentanglement            0.87 Mb                  |
 |                            Wannierise:            0.03 Mb                  |
 |                          plot_wannier:            0.03 Mb                  |
 *----------------------------------------------------------------------------*
  
 Starting a new Wannier90 calculation ...


 Reading overlaps from wann.mmn    :  Created on 12Dec2022 at 11:54:41

 Reading projections from wann.amn :  Created on 12Dec2022 at 11:54:41

 Time to read overlaps          0.027 (sec)

 *------------------------------- DISENTANGLE --------------------------------*
 +----------------------------------------------------------------------------+
 |                              Energy  Windows                               |
 |                              ---------------                               |
 |                   Outer:   10.03902  to   17.00000  (eV)                   |
 |                   Inner:   10.03902  to   14.50000  (eV)                   |
 +----------------------------------------------------------------------------+
   Number of target bands to extract:    2

                   Unitarised projection of Wannier functions                  
                   ------------------------------------------                  
   A_mn = <psi_m|g_n> --> S = A.A^+ --> U = S^-1/2.A
   In dis_project... done
   Using an inner window (linner = T)
   In dis_proj_froz... done

                   Extraction of optimally-connected subspace                  
                   ------------------------------------------                  
 +---------------------------------------------------------------------+<-- DIS
 |  Iter     Omega_I(i-1)      Omega_I(i)      Delta (frac.)    Time   |<-- DIS
 +---------------------------------------------------------------------+<-- DIS
       1       5.22686518       5.16952009       1.109E-02      0.00    <-- DIS
       2       5.19502301       5.16743963       5.338E-03      0.00    <-- DIS
       3       5.18065918       5.16694581       2.654E-03      0.00    <-- DIS
       4       5.17357441       5.16683940       1.304E-03      0.00    <-- DIS
       5       5.17011247       5.16681735       6.377E-04      0.00    <-- DIS
       6       5.16842434       5.16681284       3.119E-04      0.00    <-- DIS
       7       5.16760076       5.16681193       1.527E-04      0.00    <-- DIS
       8       5.16719841       5.16681174       7.484E-05      0.00    <-- DIS
       9       5.16700153       5.16681170       3.674E-05      0.00    <-- DIS
      10       5.16690502       5.16681169       1.806E-05      0.00    <-- DIS
      11       5.16685764       5.16681169       8.893E-06      0.00    <-- DIS
      12       5.16683434       5.16681169       4.384E-06      0.00    <-- DIS
      13       5.16682287       5.16681169       2.164E-06      0.00    <-- DIS
      14       5.16681722       5.16681169       1.069E-06      0.00    <-- DIS
      15       5.16681443       5.16681169       5.290E-07      0.00    <-- DIS
      16       5.16681305       5.16681169       2.619E-07      0.00    <-- DIS
      17       5.16681236       5.16681169       1.298E-07      0.00    <-- DIS
      18       5.16681203       5.16681169       6.438E-08      0.00    <-- DIS
      19       5.16681186       5.16681169       3.196E-08      0.00    <-- DIS
      20       5.16681177       5.16681169       1.587E-08      0.00    <-- DIS
      21       5.16681173       5.16681169       7.889E-09      0.00    <-- DIS
      22       5.16681171       5.16681169       3.923E-09      0.00    <-- DIS
      23       5.16681170       5.16681169       1.952E-09      0.00    <-- DIS
      24       5.16681170       5.16681169       9.716E-10      0.00    <-- DIS
      25       5.16681170       5.16681169       4.838E-10      0.00    <-- DIS
      26       5.16681169       5.16681169       2.410E-10      0.00    <-- DIS
      27       5.16681169       5.16681169       1.201E-10      0.00    <-- DIS
      28       5.16681169       5.16681169       5.988E-11      0.00    <-- DIS
      29       5.16681169       5.16681169       2.986E-11      0.00    <-- DIS
      30       5.16681169       5.16681169       1.489E-11      0.00    <-- DIS

             <<<      Delta < 1.000E-10  over  3 iterations     >>>
             <<< Disentanglement convergence criteria satisfied >>>

        Final Omega_I     5.16681169 (Ang^2)

 +----------------------------------------------------------------------------+

 Time to disentangle bands      0.002 (sec)

 Writing checkpoint file wann.chk... done

 
 *------------------------------- WANNIERISE ---------------------------------*
 +--------------------------------------------------------------------+<-- CONV
 | Iter  Delta Spread     RMS Gradient      Spread (Ang^2)      Time  |<-- CONV
 +--------------------------------------------------------------------+<-- CONV
 
 ------------------------------------------------------------------------------
 Initial State
  WF centre and spread    1  ( -0.000009,  1.876076,  3.217509 )     9.43053101
  WF centre and spread    2  (  1.624734,  0.938030,  0.614550 )     9.43062173
  Sum of centres and spreads (  1.624725,  2.814106,  3.832059 )    18.86115274
 
      0     0.189E+02     0.0000000000       18.8611527406       0.00  <-- CONV
        O_D=     12.1762488 O_OD=      1.5180922 O_TOT=     18.8611527 <-- SPRD
 ------------------------------------------------------------------------------
 Cycle:      1
  WF centre and spread    1  (  3.249275,  0.000101,  3.206179 )     4.64860395
  WF centre and spread    2  ( -1.624550,  2.814005,  0.603216 )     4.64867501
  Sum of centres and spreads (  1.624725,  2.814106,  3.809396 )     9.29727896
 
      1    -0.956E+01     2.2524036005        9.2972789580       0.00  <-- CONV
        O_D=      2.8189188 O_OD=      1.3115484 O_TOT=      9.2972790 <-- SPRD
 Delta: O_D= -0.9357330E+01 O_OD= -0.2065438E+00 O_TOT= -0.9563874E+01 <-- DLTA
 ------------------------------------------------------------------------------
 Cycle:      2
  WF centre and spread    1  (  3.249378,  0.000041,  3.219756 )     4.47725898
  WF centre and spread    2  ( -1.624653,  2.814065,  0.616773 )     4.47743320
  Sum of centres and spreads (  1.624725,  2.814106,  3.836529 )     8.95469219
 
      2    -0.343E+00     0.9658912971        8.9546921858       0.00  <-- CONV
        O_D=      2.4358366 O_OD=      1.3520439 O_TOT=      8.9546922 <-- SPRD
 Delta: O_D= -0.3830822E+00 O_OD=  0.4049548E-01 O_TOT= -0.3425868E+00 <-- DLTA
 ------------------------------------------------------------------------------
 Cycle:      3
  WF centre and spread    1  (  3.249640, -0.000110,  4.506271 )     9.49533242
  WF centre and spread    2  ( -1.624915,  2.814216,  1.903483 )     9.49603469
  Sum of centres and spreads (  1.624725,  2.814106,  6.409754 )    18.99136711
 
      3     0.100E+02     0.9646325371       18.9913671053       0.00  <-- CONV
        O_D=     11.2364855 O_OD=      2.5880699 O_TOT=     18.9913671 <-- SPRD
 Delta: O_D=  0.8800649E+01 O_OD=  0.1236026E+01 O_TOT=  0.1003667E+02 <-- DLTA
 ------------------------------------------------------------------------------
 Cycle:      4
  WF centre and spread    1  (  3.249777, -0.000189,  4.397116 )     8.78736431
  WF centre and spread    2  ( -1.625052,  2.814295,  1.794173 )     8.78702655
  Sum of centres and spreads (  1.624725,  2.814106,  6.191289 )    17.57439086
 
      4    -0.142E+01     2.6635103381       17.5743908619       0.00  <-- CONV
        O_D=      9.7411254 O_OD=      2.6664537 O_TOT=     17.5743909 <-- SPRD
 Delta: O_D= -0.1495360E+01 O_OD=  0.7838386E-01 O_TOT= -0.1416976E+01 <-- DLTA
 ------------------------------------------------------------------------------
 Cycle:      5
  WF centre and spread    1  (  3.256259, -0.003931,  3.619437 )     5.86110602
  WF centre and spread    2  ( -1.631532,  2.818036,  1.006933 )     5.83878182
  Sum of centres and spreads (  1.624726,  2.814105,  4.626370 )    11.69988784
 
      5    -0.587E+01     8.0111888118       11.6998878432       0.00  <-- CONV
        O_D=      5.3850649 O_OD=      1.1480112 O_TOT=     11.6998878 <-- SPRD
 Delta: O_D= -0.4356061E+01 O_OD= -0.1518442E+01 O_TOT= -0.5874503E+01 <-- DLTA
 ------------------------------------------------------------------------------
 Cycle:      6
  WF centre and spread    1  (  3.251131, -0.000971,  3.192476 )     4.77377471
  WF centre and spread    2  ( -1.626402,  2.815075,  0.575384 )     4.78294773
  Sum of centres and spreads (  1.624729,  2.814104,  3.767860 )     9.55672244
 
      6    -0.214E+01    15.0664663005        9.5567224414       0.00  <-- CONV
        O_D=      3.6654175 O_OD=      0.7244933 O_TOT=      9.5567224 <-- SPRD
 Delta: O_D= -0.1719647E+01 O_OD= -0.4235180E+00 O_TOT= -0.2143165E+01 <-- DLTA
 ------------------------------------------------------------------------------
 Cycle:      7
  WF centre and spread    1  (  3.249235,  0.000124,  3.157903 )     4.59470789
  WF centre and spread    2  ( -1.624431,  2.813936,  0.555217 )     4.59065483
  Sum of centres and spreads (  1.624803,  2.814061,  3.713120 )     9.18536272
 
      7    -0.371E+00     0.7681860786        9.1853627191       0.00  <-- CONV
        O_D=      3.6307897 O_OD=      0.3877613 O_TOT=      9.1853627 <-- SPRD
 Delta: O_D= -0.3462773E-01 O_OD= -0.3367320E+00 O_TOT= -0.3713597E+00 <-- DLTA
 ------------------------------------------------------------------------------
 Cycle:      8
  WF centre and spread    1  (  3.246074,  0.001949,  3.166915 )     4.71224801
  WF centre and spread    2  ( -1.622944,  2.813078,  0.375073 )     4.21907733
  Sum of centres and spreads (  1.623131,  2.815026,  3.541988 )     8.93132534
 
      8    -0.254E+00     0.3443385351        8.9313253402       0.00  <-- CONV
        O_D=      2.7081672 O_OD=      1.0563465 O_TOT=      8.9313253 <-- SPRD
 Delta: O_D= -0.9226226E+00 O_OD=  0.6685852E+00 O_TOT= -0.2540374E+00 <-- DLTA
 ------------------------------------------------------------------------------
 Cycle:      9
  WF centre and spread    1  (  3.246533,  0.001684,  2.987186 )     4.06308162
  WF centre and spread    2  ( -1.622190,  2.812643,  0.515051 )     4.46481324
  Sum of centres and spreads (  1.624342,  2.814327,  3.502237 )     8.52789486
 
      9    -0.403E+00     1.7282839473        8.5278948643       0.00  <-- CONV
        O_D=      2.1182321 O_OD=      1.2428511 O_TOT=      8.5278949 <-- SPRD
 Delta: O_D= -0.5899351E+00 O_OD=  0.1865046E+00 O_TOT= -0.4034305E+00 <-- DLTA
 ------------------------------------------------------------------------------
 Cycle:     10
  WF centre and spread    1  (  3.249351,  0.000057,  2.995863 )     4.01563145
  WF centre and spread    2  ( -1.623721,  2.813526,  0.475580 )     4.25392719
  Sum of centres and spreads (  1.625631,  2.813583,  3.471443 )     8.26955865
 
     10    -0.258E+00     1.1821653541        8.2695586454       0.00  <-- CONV
        O_D=      1.7400583 O_OD=      1.3626886 O_TOT=      8.2695586 <-- SPRD
 Delta: O_D= -0.3781737E+00 O_OD=  0.1198375E+00 O_TOT= -0.2583362E+00 <-- DLTA
 ------------------------------------------------------------------------------
 Cycle:     11
  WF centre and spread    1  (  3.249569, -0.000069,  3.024316 )     4.09907924
  WF centre and spread    2  ( -1.624227,  2.813818,  0.440557 )     4.14864795
  Sum of centres and spreads (  1.625342,  2.813750,  3.464873 )     8.24772720
 
     11    -0.218E-01     0.5619583201        8.2477271990       0.00  <-- CONV
        O_D=      1.6748086 O_OD=      1.4061069 O_TOT=      8.2477272 <-- SPRD
 Delta: O_D= -0.6524972E-01 O_OD=  0.4341827E-01 O_TOT= -0.2183145E-01 <-- DLTA
 ------------------------------------------------------------------------------
 Cycle:     12
  WF centre and spread    1  (  3.249477, -0.000016,  3.040636 )     4.13821794
  WF centre and spread    2  ( -1.624537,  2.813998,  0.427684 )     4.10505458
  Sum of centres and spreads (  1.624940,  2.813982,  3.468320 )     8.24327252
 
     12    -0.445E-02     0.2026751750        8.2432725179       0.00  <-- CONV
        O_D=      1.6928049 O_OD=      1.3836559 O_TOT=      8.2432725 <-- SPRD
 Delta: O_D=  0.1799630E-01 O_OD= -0.2245098E-01 O_TOT= -0.4454681E-02 <-- DLTA
 ------------------------------------------------------------------------------
 Cycle:     13
  WF centre and spread    1  (  3.249364,  0.000050,  3.041505 )     4.13199097
  WF centre and spread    2  ( -1.624867,  2.814188,  0.430588 )     4.10810139
  Sum of centres and spreads (  1.624497,  2.814238,  3.472094 )     8.24009236
 
     13    -0.318E-02     0.1366501250        8.2400923585       0.00  <-- CONV
        O_D=      1.7121302 O_OD=      1.3611505 O_TOT=      8.2400924 <-- SPRD
 Delta: O_D=  0.1932523E-01 O_OD= -0.2250539E-01 O_TOT= -0.3180159E-02 <-- DLTA
 ------------------------------------------------------------------------------
 Cycle:     14
  WF centre and spread    1  (  3.249390,  0.000035,  3.037952 )     4.12149664
  WF centre and spread    2  ( -1.624838,  2.814171,  0.434056 )     4.11832615
  Sum of centres and spreads (  1.624552,  2.814206,  3.472008 )     8.23982279
 
     14    -0.270E-03     0.0591245708        8.2398227909       0.00  <-- CONV
        O_D=      1.7108611 O_OD=      1.3621500 O_TOT=      8.2398228 <-- SPRD
 Delta: O_D= -0.1269100E-02 O_OD=  0.9995324E-03 O_TOT= -0.2695676E-03 <-- DLTA
 ------------------------------------------------------------------------------
 Cycle:     15
  WF centre and spread    1  (  3.249414,  0.000021,  3.037273 )     4.11940361
  WF centre and spread    2  ( -1.624768,  2.814131,  0.434785 )     4.12038409
  Sum of centres and spreads (  1.624646,  2.814152,  3.472058 )     8.23978770
 
     15    -0.351E-04     0.0180674937        8.2397876991       0.00  <-- CONV
        O_D=      1.7114769 O_OD=      1.3614991 O_TOT=      8.2397877 <-- SPRD
 Delta: O_D=  0.6158886E-03 O_OD= -0.6509804E-03 O_TOT= -0.3509182E-04 <-- DLTA
 ------------------------------------------------------------------------------
 Cycle:     16
  WF centre and spread    1  (  3.249437,  0.000007,  3.036866 )     4.11869201
  WF centre and spread    2  ( -1.624699,  2.814091,  0.434832 )     4.12107791
  Sum of centres and spreads (  1.624738,  2.814098,  3.471698 )     8.23976992
 
     16    -0.178E-04     0.0124466636        8.2397699164       0.00  <-- CONV
        O_D=      1.7090944 O_OD=      1.3638638 O_TOT=      8.2397699 <-- SPRD
 Delta: O_D= -0.2382499E-02 O_OD=  0.2364717E-02 O_TOT= -0.1778272E-04 <-- DLTA
 ------------------------------------------------------------------------------
 Cycle:     17
  WF centre and spread    1  (  3.249431,  0.000011,  3.037234 )     4.11978840
  WF centre and spread    2  ( -1.624685,  2.814083,  0.434426 )     4.11997850
  Sum of centres and spreads (  1.624746,  2.814094,  3.471660 )     8.23976690
 
     17    -0.302E-05     0.0052861175        8.2397668970       0.00  <-- CONV
        O_D=      1.7089032 O_OD=      1.3640520 O_TOT=      8.2397669 <-- SPRD
 Delta: O_D= -0.1912471E-03 O_OD=  0.1882277E-03 O_TOT= -0.3019412E-05 <-- DLTA
 ------------------------------------------------------------------------------
 Cycle:     18
  WF centre and spread    1  (  3.249398,  0.000030,  3.037289 )     4.11989917
  WF centre and spread    2  ( -1.624700,  2.814092,  0.434371 )     4.11986768
  Sum of centres and spreads (  1.624698,  2.814121,  3.471660 )     8.23976684
 
     18    -0.522E-07     0.0003379413        8.2397668448       0.00  <-- CONV
        O_D=      1.7089012 O_OD=      1.3640540 O_TOT=      8.2397668 <-- SPRD
 Delta: O_D= -0.2029568E-05 O_OD=  0.1977397E-05 O_TOT= -0.5217024E-07 <-- DLTA
 ------------------------------------------------------------------------------
 Cycle:     19
  WF centre and spread    1  (  3.249428,  0.000012,  3.037331 )     4.11994514
  WF centre and spread    2  ( -1.624665,  2.814071,  0.434344 )     4.11982165
  Sum of centres and spreads (  1.624763,  2.814084,  3.471675 )     8.23976679
 
     19    -0.509E-07     0.0002458571        8.2397667939       0.00  <-- CONV
        O_D=      1.7090088 O_OD=      1.3639463 O_TOT=      8.2397668 <-- SPRD
 Delta: O_D=  0.1076092E-03 O_OD= -0.1076601E-03 O_TOT= -0.5092013E-07 <-- DLTA
 ------------------------------------------------------------------------------
 Cycle:     20
  WF centre and spread    1  (  3.249421,  0.000017,  3.037329 )     4.11998073
  WF centre and spread    2  ( -1.624675,  2.814077,  0.434324 )     4.11978592
  Sum of centres and spreads (  1.624746,  2.814094,  3.471653 )     8.23976665
 
     20    -0.146E-06     0.0012789066        8.2397666479       0.00  <-- CONV
        O_D=      1.7088500 O_OD=      1.3641049 O_TOT=      8.2397666 <-- SPRD
 Delta: O_D= -0.1587313E-03 O_OD=  0.1585853E-03 O_TOT= -0.1460005E-06 <-- DLTA
 ------------------------------------------------------------------------------
 Cycle:     21
  WF centre and spread    1  (  3.249415,  0.000020,  3.037328 )     4.11999029
  WF centre and spread    2  ( -1.624683,  2.814082,  0.434324 )     4.11977621
  Sum of centres and spreads (  1.624732,  2.814102,  3.471652 )     8.23976649
 
     21    -0.156E-06     0.0011211700        8.2397664916       0.00  <-- CONV
        O_D=      1.7088404 O_OD=      1.3641144 O_TOT=      8.2397665 <-- SPRD
 Delta: O_D= -0.9643400E-05 O_OD=  0.9487128E-05 O_TOT= -0.1562717E-06 <-- DLTA
 ------------------------------------------------------------------------------
 Cycle:     22
  WF centre and spread    1  (  3.249406,  0.000025,  3.037323 )     4.11997995
  WF centre and spread    2  ( -1.624696,  2.814090,  0.434337 )     4.11978606
  Sum of centres and spreads (  1.624709,  2.814115,  3.471660 )     8.23976601
 
     22    -0.477E-06     0.0013227720        8.2397660148       0.00  <-- CONV
        O_D=      1.7089038 O_OD=      1.3640505 O_TOT=      8.2397660 <-- SPRD
 Delta: O_D=  0.6339047E-04 O_OD= -0.6386734E-04 O_TOT= -0.4768772E-06 <-- DLTA
 ------------------------------------------------------------------------------
 Cycle:     23
  WF centre and spread    1  (  3.249396,  0.000031,  3.037304 )     4.11993072
  WF centre and spread    2  ( -1.624712,  2.814099,  0.434368 )     4.11983409
  Sum of centres and spreads (  1.624683,  2.814130,  3.471672 )     8.23976482
 
     23    -0.120E-05     0.0015495763        8.2397648155       0.00  <-- CONV
        O_D=      1.7089937 O_OD=      1.3639595 O_TOT=      8.2397648 <-- SPRD
 Delta: O_D=  0.8986459E-04 O_OD= -0.9106388E-04 O_TOT= -0.1199290E-05 <-- DLTA
 ------------------------------------------------------------------------------
 Cycle:     24
  WF centre and spread    1  (  3.249371,  0.000044,  3.037231 )     4.11975524
  WF centre and spread    2  ( -1.624751,  2.814123,  0.434462 )     4.12000189
  Sum of centres and spreads (  1.624620,  2.814167,  3.471693 )     8.23975712
 
     24    -0.769E-05     0.0026339895        8.2397571224       0.00  <-- CONV
        O_D=      1.7091476 O_OD=      1.3637978 O_TOT=      8.2397571 <-- SPRD
 Delta: O_D=  0.1539545E-03 O_OD= -0.1616476E-03 O_TOT= -0.7693097E-05 <-- DLTA
 ------------------------------------------------------------------------------
 Cycle:     25
  WF centre and spread    1  (  3.249466, -0.000020,  3.037103 )     4.11974226
  WF centre and spread    2  ( -1.624614,  2.814053,  0.434287 )     4.11999829
  Sum of centres and spreads (  1.624851,  2.814033,  3.471390 )     8.23974055
 
     25    -0.166E-04     0.0061236065        8.2397405457       0.00  <-- CONV
        O_D=      1.7068786 O_OD=      1.3660503 O_TOT=      8.2397405 <-- SPRD
 Delta: O_D= -0.2269056E-02 O_OD=  0.2252479E-02 O_TOT= -0.1657664E-04 <-- DLTA
 ------------------------------------------------------------------------------
 Cycle:     26
  WF centre and spread    1  (  3.249435, -0.000008,  3.037319 )     4.11981678
  WF centre and spread    2  ( -1.624629,  2.814066,  0.434436 )     4.11988039
  Sum of centres and spreads (  1.624807,  2.814059,  3.471755 )     8.23969717
 
     26    -0.434E-04     0.0247084760        8.2396971708       0.00  <-- CONV
        O_D=      1.7095615 O_OD=      1.3633240 O_TOT=      8.2396972 <-- SPRD
 Delta: O_D=  0.2682968E-02 O_OD= -0.2726343E-02 O_TOT= -0.4337496E-04 <-- DLTA
 ------------------------------------------------------------------------------
 Cycle:     27
  WF centre and spread    1  (  3.249409, -0.000000,  3.037347 )     4.11985436
  WF centre and spread    2  ( -1.624641,  2.814081,  0.434426 )     4.11980975
  Sum of centres and spreads (  1.624768,  2.814081,  3.471773 )     8.23966410
 
     27    -0.331E-04     0.0161107261        8.2396641022       0.00  <-- CONV
        O_D=      1.7096769 O_OD=      1.3631755 O_TOT=      8.2396641 <-- SPRD
 Delta: O_D=  0.1153875E-03 O_OD= -0.1484560E-03 O_TOT= -0.3306855E-04 <-- DLTA
 ------------------------------------------------------------------------------
 Cycle:     28
  WF centre and spread    1  (  3.249353,  0.000008,  3.037320 )     4.11986718
  WF centre and spread    2  ( -1.624655,  2.814113,  0.434349 )     4.11968405
  Sum of centres and spreads (  1.624698,  2.814121,  3.471669 )     8.23955124
 
     28    -0.113E-03     0.0195563801        8.2395512366       0.00  <-- CONV
        O_D=      1.7088224 O_OD=      1.3639171 O_TOT=      8.2395512 <-- SPRD
 Delta: O_D= -0.8544902E-03 O_OD=  0.7416246E-03 O_TOT= -0.1128656E-03 <-- DLTA
 ------------------------------------------------------------------------------
 Cycle:     29
  WF centre and spread    1  (  3.249239,  0.000004,  3.037244 )     4.11975496
  WF centre and spread    2  ( -1.624641,  2.814176,  0.434231 )     4.11945595
  Sum of centres and spreads (  1.624598,  2.814179,  3.471474 )     8.23921090
 
     29    -0.340E-03     0.0244047816        8.2392109025       0.00  <-- CONV
        O_D=      1.7071516 O_OD=      1.3652476 O_TOT=      8.2392109 <-- SPRD
 Delta: O_D= -0.1670834E-02 O_OD=  0.1330500E-02 O_TOT= -0.3403341E-03 <-- DLTA
 ------------------------------------------------------------------------------
 Cycle:     30
  WF centre and spread    1  (  3.248713, -0.000113,  3.037048 )     4.11873224
  WF centre and spread    2  ( -1.624366,  2.814437,  0.433969 )     4.11826430
  Sum of centres and spreads (  1.624347,  2.814324,  3.471017 )     8.23699654
 
     30    -0.221E-02     0.0412385424        8.2369965409       0.00  <-- CONV
        O_D=      1.7023061 O_OD=      1.3678787 O_TOT=      8.2369965 <-- SPRD
 Delta: O_D= -0.4845459E-02 O_OD=  0.2631098E-02 O_TOT= -0.2214362E-02 <-- DLTA
 ------------------------------------------------------------------------------
 Cycle:     31
  WF centre and spread    1  (  3.236956, -0.006637,  3.040783 )     4.10783533
  WF centre and spread    2  ( -1.609957,  2.819421,  0.439548 )     4.11290540
  Sum of centres and spreads (  1.626999,  2.812783,  3.480330 )     8.22074073
 
     31    -0.163E-01     0.0963359314        8.2207407317       0.01  <-- CONV
        O_D=      1.7738152 O_OD=      1.2801138 O_TOT=      8.2207407 <-- SPRD
 Delta: O_D=  0.7150911E-01 O_OD= -0.8776492E-01 O_TOT= -0.1625581E-01 <-- DLTA
 ------------------------------------------------------------------------------
 Cycle:     32
  WF centre and spread    1  (  3.225873, -0.011229,  3.031152 )     4.07798588
  WF centre and spread    2  ( -1.600052,  2.824706,  0.428208 )     4.07812361
  Sum of centres and spreads (  1.625821,  2.813478,  3.459361 )     8.15610949
 
     32    -0.646E-01     0.8780853414        8.1561094931       0.01  <-- CONV
        O_D=      1.5754460 O_OD=      1.4138518 O_TOT=      8.1561095 <-- SPRD
 Delta: O_D= -0.1983693E+00 O_OD=  0.1337380E+00 O_TOT= -0.6463124E-01 <-- DLTA
 ------------------------------------------------------------------------------
 Cycle:     33
  WF centre and spread    1  (  2.831325, -0.602692,  2.996980 )    12.14007862
  WF centre and spread    2  ( -1.254494,  3.429618,  0.501912 )    12.69950537
  Sum of centres and spreads (  1.576831,  2.826926,  3.498892 )    24.83958399
 
     33     0.167E+02     0.6514470336       24.8395839940       0.01  <-- CONV
        O_D=     18.3208771 O_OD=      1.3518952 O_TOT=     24.8395840 <-- SPRD
 Delta: O_D=  0.1674543E+02 O_OD= -0.6195666E-01 O_TOT=  0.1668347E+02 <-- DLTA
 ------------------------------------------------------------------------------
 Cycle:     34
  WF centre and spread    1  (  1.451781, -0.564773,  2.485022 )    10.10948936
  WF centre and spread    2  (  3.137873, -2.070965, -0.142923 )     9.34864542
  Sum of centres and spreads (  4.589653, -2.635738,  2.342099 )    19.45813478
 
     34    -0.538E+01     9.3233117853       19.4581347787       0.01  <-- CONV
        O_D=     12.6332589 O_OD=      1.6580642 O_TOT=     19.4581348 <-- SPRD
 Delta: O_D= -0.5687618E+01 O_OD=  0.3061690E+00 O_TOT= -0.5381449E+01 <-- DLTA
 ------------------------------------------------------------------------------
 Cycle:     35
  WF centre and spread    1  (  2.051614,  0.490397,  2.272412 )     9.17222087
  WF centre and spread    2  (  2.547892, -3.275647, -0.077222 )     8.27521781
  Sum of centres and spreads (  4.599506, -2.785250,  2.195190 )    17.44743868
 
     35    -0.201E+01     6.8264596198       17.4474386825       0.01  <-- CONV
        O_D=     10.7992476 O_OD=      1.4813794 O_TOT=     17.4474387 <-- SPRD
 Delta: O_D= -0.1834011E+01 O_OD= -0.1766848E+00 O_TOT= -0.2010696E+01 <-- DLTA
 ------------------------------------------------------------------------------
 Cycle:     36
  WF centre and spread    1  (  2.206914,  0.471015,  2.492235 )     7.86887230
  WF centre and spread    2  ( -0.713673,  2.229129, -0.270072 )     5.51202053
  Sum of centres and spreads (  1.493241,  2.700144,  2.222163 )    13.38089283
 
     36    -0.407E+01     6.3882802577       13.3808928312       0.01  <-- CONV
        O_D=      6.7652324 O_OD=      1.4488487 O_TOT=     13.3808928 <-- SPRD
 Delta: O_D= -0.4034015E+01 O_OD= -0.3253068E-01 O_TOT= -0.4066546E+01 <-- DLTA
 ------------------------------------------------------------------------------
 Cycle:     37
  WF centre and spread    1  (  2.102083,  0.601415,  2.488162 )     5.91455503
  WF centre and spread    2  ( -0.611323,  2.191270, -0.240898 )     5.00276309
  Sum of centres and spreads (  1.490760,  2.792685,  2.247264 )    10.91731812
 
     37    -0.246E+01     4.5882437395       10.9173181228       0.01  <-- CONV
        O_D=      4.6715139 O_OD=      1.0789925 O_TOT=     10.9173181 <-- SPRD
 Delta: O_D= -0.2093719E+01 O_OD= -0.3698562E+00 O_TOT= -0.2463575E+01 <-- DLTA
 ------------------------------------------------------------------------------
 Cycle:     38
  WF centre and spread    1  (  2.269963,  0.550634,  2.419421 )     4.84167437
  WF centre and spread    2  ( -0.599196,  2.220958, -0.135190 )     4.84521571
  Sum of centres and spreads (  1.670767,  2.771592,  2.284231 )     9.68689008
 
     38    -0.123E+01     2.7035923216        9.6868900803       0.01  <-- CONV
        O_D=      3.8408057 O_OD=      0.6792727 O_TOT=      9.6868901 <-- SPRD
 Delta: O_D= -0.8307082E+00 O_OD= -0.3997199E+00 O_TOT= -0.1230428E+01 <-- DLTA
 ------------------------------------------------------------------------------
 Cycle:     39
  WF centre and spread    1  (  2.364088,  0.500657,  2.418572 )     4.66289766
  WF centre and spread    2  ( -0.626437,  2.257234, -0.106013 )     4.66386283
  Sum of centres and spreads (  1.737651,  2.757891,  2.312559 )     9.32676049
 
     39    -0.360E+00     1.7684015532        9.3267604911       0.01  <-- CONV
        O_D=      3.6591843 O_OD=      0.5007645 O_TOT=      9.3267605 <-- SPRD
 Delta: O_D= -0.1816214E+00 O_OD= -0.1785082E+00 O_TOT= -0.3601296E+00 <-- DLTA
 ------------------------------------------------------------------------------
 Cycle:     40
  WF centre and spread    1  (  2.399906,  0.498879,  2.429182 )     4.41509674
  WF centre and spread    2  ( -0.679382,  2.267354, -0.117384 )     4.53742846
  Sum of centres and spreads (  1.720524,  2.766233,  2.311797 )     8.95252520
 
     40    -0.374E+00     2.3493934211        8.9525252033       0.01  <-- CONV
        O_D=      3.2881506 O_OD=      0.4975629 O_TOT=      8.9525252 <-- SPRD
 Delta: O_D= -0.3710336E+00 O_OD= -0.3201660E-02 O_TOT= -0.3742353E+00 <-- DLTA
 ------------------------------------------------------------------------------
 Cycle:     41
  WF centre and spread    1  (  2.584926,  0.382594,  2.469391 )     4.41565697
  WF centre and spread    2  ( -0.934610,  2.417792, -0.143203 )     4.43187821
  Sum of centres and spreads (  1.650315,  2.800386,  2.326189 )     8.84753519
 
     41    -0.105E+00     1.3191413730        8.8475351870       0.01  <-- CONV
        O_D=      3.1517587 O_OD=      0.5289648 O_TOT=      8.8475352 <-- SPRD
 Delta: O_D= -0.1363920E+00 O_OD=  0.3140195E-01 O_TOT= -0.1049900E+00 <-- DLTA
 ------------------------------------------------------------------------------
 Cycle:     42
  WF centre and spread    1  (  2.454400,  0.444956,  2.456163 )     4.28035669
  WF centre and spread    2  ( -0.807665,  2.357608, -0.142827 )     4.32634520
  Sum of centres and spreads (  1.646735,  2.802563,  2.313336 )     8.60670189
 
     42    -0.241E+00     1.6576233106        8.6067018908       0.01  <-- CONV
        O_D=      2.9361644 O_OD=      0.5037258 O_TOT=      8.6067019 <-- SPRD
 Delta: O_D= -0.2155943E+00 O_OD= -0.2523900E-01 O_TOT= -0.2408333E+00 <-- DLTA
 ------------------------------------------------------------------------------
 Cycle:     43
  WF centre and spread    1  (  2.486549,  0.408063,  2.458486 )     4.24479824
  WF centre and spread    2  ( -0.844039,  2.396829, -0.141743 )     4.28453260
  Sum of centres and spreads (  1.642509,  2.804892,  2.316743 )     8.52933084
 
     43    -0.774E-01     1.0427610436        8.5293308419       0.01  <-- CONV
        O_D=      2.8733010 O_OD=      0.4892181 O_TOT=      8.5293308 <-- SPRD
 Delta: O_D= -0.6286334E-01 O_OD= -0.1450771E-01 O_TOT= -0.7737105E-01 <-- DLTA
 ------------------------------------------------------------------------------
 Cycle:     44
  WF centre and spread    1  (  2.497222,  0.422014,  2.458733 )     4.23247119
  WF centre and spread    2  ( -0.859753,  2.385385, -0.139022 )     4.26547361
  Sum of centres and spreads (  1.637469,  2.807399,  2.319712 )     8.49794480
 
     44    -0.314E-01     0.5865115685        8.4979447978       0.01  <-- CONV
        O_D=      2.8708073 O_OD=      0.4603258 O_TOT=      8.4979448 <-- SPRD
 Delta: O_D= -0.2493778E-02 O_OD= -0.2889227E-01 O_TOT= -0.3138604E-01 <-- DLTA
 ------------------------------------------------------------------------------
 Cycle:     45
  WF centre and spread    1  (  2.478951,  0.440566,  2.458483 )     4.22997184
  WF centre and spread    2  ( -0.842990,  2.367603, -0.139079 )     4.25824696
  Sum of centres and spreads (  1.635961,  2.808169,  2.319405 )     8.48821880
 
     45    -0.973E-02     0.6978670176        8.4882187971       0.01  <-- CONV
        O_D=      2.8712925 O_OD=      0.4501146 O_TOT=      8.4882188 <-- SPRD
 Delta: O_D=  0.4852349E-03 O_OD= -0.1021124E-01 O_TOT= -0.9726001E-02 <-- DLTA
 ------------------------------------------------------------------------------
 Cycle:     46
  WF centre and spread    1  (  2.463480,  0.469530,  2.460131 )     4.22611000
  WF centre and spread    2  ( -0.831071,  2.340493, -0.139284 )     4.24584596
  Sum of centres and spreads (  1.632409,  2.810023,  2.320847 )     8.47195596
 
     46    -0.163E-01     0.5127123941        8.4719559600       0.01  <-- CONV
        O_D=      2.8802815 O_OD=      0.4248627 O_TOT=      8.4719560 <-- SPRD
 Delta: O_D=  0.8989018E-02 O_OD= -0.2525185E-01 O_TOT= -0.1626284E-01 <-- DLTA
 ------------------------------------------------------------------------------
 Cycle:     47
  WF centre and spread    1  (  2.473217,  0.473030,  2.461487 )     4.22485718
  WF centre and spread    2  ( -0.842312,  2.337786, -0.138734 )     4.24096789
  Sum of centres and spreads (  1.630905,  2.810815,  2.322753 )     8.46582508
 
     47    -0.613E-02     0.6291497012        8.4658250757       0.01  <-- CONV
        O_D=      2.8837387 O_OD=      0.4152747 O_TOT=      8.4658251 <-- SPRD
 Delta: O_D=  0.3457132E-02 O_OD= -0.9588016E-02 O_TOT= -0.6130884E-02 <-- DLTA
 ------------------------------------------------------------------------------
 Cycle:     48
  WF centre and spread    1  (  2.480759,  0.460605,  2.462249 )     4.22157373
  WF centre and spread    2  ( -0.850111,  2.350352, -0.137972 )     4.23728333
  Sum of centres and spreads (  1.630648,  2.810957,  2.324277 )     8.45885706
 
     48    -0.697E-02     0.4875484881        8.4588570584       0.01  <-- CONV
        O_D=      2.8805684 O_OD=      0.4114769 O_TOT=      8.4588571 <-- SPRD
 Delta: O_D= -0.3170237E-02 O_OD= -0.3797781E-02 O_TOT= -0.6968017E-02 <-- DLTA
 ------------------------------------------------------------------------------
 Cycle:     49
  WF centre and spread    1  (  2.469362,  0.458463,  2.462434 )     4.22099558
  WF centre and spread    2  ( -0.838913,  2.352599, -0.137909 )     4.23578519
  Sum of centres and spreads (  1.630449,  2.811062,  2.324526 )     8.45678077
 
     49    -0.208E-02     0.3819012663        8.4567807730       0.01  <-- CONV
        O_D=      2.8821506 O_OD=      0.4078185 O_TOT=      8.4567808 <-- SPRD
 Delta: O_D=  0.1582166E-02 O_OD= -0.3658451E-02 O_TOT= -0.2076285E-02 <-- DLTA
 ------------------------------------------------------------------------------
 Cycle:     50
  WF centre and spread    1  (  2.450891,  0.432014,  2.464914 )     4.22034926
  WF centre and spread    2  ( -0.821700,  2.379717, -0.136971 )     4.22907175
  Sum of centres and spreads (  1.629191,  2.811731,  2.327943 )     8.44942101
 
     50    -0.736E-02     0.3293818274        8.4494210125       0.01  <-- CONV
        O_D=      2.8949942 O_OD=      0.3876151 O_TOT=      8.4494210 <-- SPRD
 Delta: O_D=  0.1284364E-01 O_OD= -0.2020340E-01 O_TOT= -0.7359761E-02 <-- DLTA
 ------------------------------------------------------------------------------
 Cycle:     51
  WF centre and spread    1  (  2.439798,  0.441335,  2.466529 )     4.22047009
  WF centre and spread    2  ( -0.811662,  2.370958, -0.136147 )     4.22473030
  Sum of centres and spreads (  1.628136,  2.812293,  2.330381 )     8.44520039
 
     51    -0.422E-02     0.3365445417        8.4452003941       0.01  <-- CONV
        O_D=      2.9065296 O_OD=      0.3718591 O_TOT=      8.4452004 <-- SPRD
 Delta: O_D=  0.1153539E-01 O_OD= -0.1575601E-01 O_TOT= -0.4220618E-02 <-- DLTA
 ------------------------------------------------------------------------------
 Cycle:     52
  WF centre and spread    1  (  2.449586,  0.440303,  2.468933 )     4.21911670
  WF centre and spread    2  ( -0.822780,  2.372682, -0.134414 )     4.21909224
  Sum of centres and spreads (  1.626806,  2.812985,  2.334518 )     8.43820894
 
     52    -0.699E-02     0.5110470007        8.4382089397       0.01  <-- CONV
        O_D=      2.9161237 O_OD=      0.3552735 O_TOT=      8.4382089 <-- SPRD
 Delta: O_D=  0.9594133E-02 O_OD= -0.1658559E-01 O_TOT= -0.6991454E-02 <-- DLTA
 ------------------------------------------------------------------------------
 Cycle:     53
  WF centre and spread    1  (  2.459382,  0.457135,  2.470870 )     4.21714170
  WF centre and spread    2  ( -0.833864,  2.356528, -0.132754 )     4.21407315
  Sum of centres and spreads (  1.625518,  2.813663,  2.338116 )     8.43121484
 
     53    -0.699E-02     0.4400344101        8.4312148423       0.01  <-- CONV
        O_D=      2.9234467 O_OD=      0.3409564 O_TOT=      8.4312148 <-- SPRD
 Delta: O_D=  0.7323006E-02 O_OD= -0.1431710E-01 O_TOT= -0.6994097E-02 <-- DLTA
 ------------------------------------------------------------------------------
 Cycle:     54
  WF centre and spread    1  (  2.452185,  0.458883,  2.470775 )     4.21650299
  WF centre and spread    2  ( -0.826702,  2.354795, -0.132813 )     4.21347179
  Sum of centres and spreads (  1.625483,  2.813678,  2.337962 )     8.42997478
 
     54    -0.124E-02     0.3390239028        8.4299747788       0.01  <-- CONV
        O_D=      2.9228905 O_OD=      0.3402726 O_TOT=      8.4299748 <-- SPRD
 Delta: O_D= -0.5562164E-03 O_OD= -0.6838471E-03 O_TOT= -0.1240064E-02 <-- DLTA
 ------------------------------------------------------------------------------
 Cycle:     55
  WF centre and spread    1  (  2.454467,  0.456481,  2.470855 )     4.21616506
  WF centre and spread    2  ( -0.829026,  2.357218, -0.132687 )     4.21329249
  Sum of centres and spreads (  1.625441,  2.813700,  2.338169 )     8.42945754
 
     55    -0.517E-03     0.2531465034        8.4294575450       0.01  <-- CONV
        O_D=      2.9228160 O_OD=      0.3398298 O_TOT=      8.4294575 <-- SPRD
 Delta: O_D= -0.7448569E-04 O_OD= -0.4427481E-03 O_TOT= -0.5172338E-03 <-- DLTA
 ------------------------------------------------------------------------------
 Cycle:     56
  WF centre and spread    1  (  2.448958,  0.463615,  2.470954 )     4.21501322
  WF centre and spread    2  ( -0.823746,  2.350213, -0.132327 )     4.21330312
  Sum of centres and spreads (  1.625213,  2.813828,  2.338626 )     8.42831634
 
     56    -0.114E-02     0.1779836559        8.4283163435       0.01  <-- CONV
        O_D=      2.9247472 O_OD=      0.3367575 O_TOT=      8.4283163 <-- SPRD
 Delta: O_D=  0.1931119E-02 O_OD= -0.3072321E-02 O_TOT= -0.1141201E-02 <-- DLTA
 ------------------------------------------------------------------------------
 Cycle:     57
  WF centre and spread    1  (  2.453225,  0.461335,  2.471037 )     4.21465234
  WF centre and spread    2  ( -0.828017,  2.352495, -0.132238 )     4.21300392
  Sum of centres and spreads (  1.625209,  2.813830,  2.338800 )     8.42765626
 
     57    -0.660E-03     0.3807680588        8.4276562566       0.01  <-- CONV
        O_D=      2.9240151 O_OD=      0.3368295 O_TOT=      8.4276563 <-- SPRD
 Delta: O_D= -0.7320938E-03 O_OD=  0.7200693E-04 O_TOT= -0.6600869E-03 <-- DLTA
 ------------------------------------------------------------------------------
 Cycle:     58
  WF centre and spread    1  (  2.455844,  0.459866,  2.471119 )     4.21445772
  WF centre and spread    2  ( -0.830652,  2.353975, -0.132135 )     4.21293180
  Sum of centres and spreads (  1.625191,  2.813841,  2.338984 )     8.42738952
 
     58    -0.267E-03     0.1570297029        8.4273895210       0.01  <-- CONV
        O_D=      2.9239625 O_OD=      0.3366153 O_TOT=      8.4273895 <-- SPRD
 Delta: O_D= -0.5255520E-04 O_OD= -0.2141804E-03 O_TOT= -0.2667356E-03 <-- DLTA
 ------------------------------------------------------------------------------
 Cycle:     59
  WF centre and spread    1  (  2.455181,  0.460111,  2.471137 )     4.21435183
  WF centre and spread    2  ( -0.830004,  2.353740, -0.132100 )     4.21289702
  Sum of centres and spreads (  1.625177,  2.813850,  2.339037 )     8.42724886
 
     59    -0.141E-03     0.1844509677        8.4272488567       0.01  <-- CONV
        O_D=      2.9240881 O_OD=      0.3363491 O_TOT=      8.4272489 <-- SPRD
 Delta: O_D=  0.1255573E-03 O_OD= -0.2662216E-03 O_TOT= -0.1406643E-03 <-- DLTA
 ------------------------------------------------------------------------------
 Cycle:     60
  WF centre and spread    1  (  2.453215,  0.460868,  2.471138 )     4.21426344
  WF centre and spread    2  ( -0.828055,  2.352992, -0.132081 )     4.21287403
  Sum of centres and spreads (  1.625160,  2.813860,  2.339057 )     8.42713746
 
     60    -0.111E-03     0.1398943512        8.4271374613       0.01  <-- CONV
        O_D=      2.9243249 O_OD=      0.3360008 O_TOT=      8.4271375 <-- SPRD
 Delta: O_D=  0.2368646E-03 O_OD= -0.3482599E-03 O_TOT= -0.1113953E-03 <-- DLTA
 ------------------------------------------------------------------------------
 Cycle:     61
  WF centre and spread    1  (  2.448780,  0.461311,  2.471210 )     4.21400450
  WF centre and spread    2  ( -0.823687,  2.352586, -0.131943 )     4.21288938
  Sum of centres and spreads (  1.625093,  2.813898,  2.339267 )     8.42689388
 
     61    -0.244E-03     0.1225484108        8.4268938800       0.01  <-- CONV
        O_D=      2.9254117 O_OD=      0.3346705 O_TOT=      8.4268939 <-- SPRD
 Delta: O_D=  0.1086769E-02 O_OD= -0.1330350E-02 O_TOT= -0.2435813E-03 <-- DLTA
 ------------------------------------------------------------------------------
 Cycle:     62
  WF centre and spread    1  (  2.452085,  0.459326,  2.471274 )     4.21382620
  WF centre and spread    2  ( -0.826994,  2.354573, -0.131877 )     4.21274327
  Sum of centres and spreads (  1.625091,  2.813898,  2.339396 )     8.42656947
 
     62    -0.324E-03     0.2999743750        8.4265694724       0.01  <-- CONV
        O_D=      2.9250508 O_OD=      0.3347069 O_TOT=      8.4265695 <-- SPRD
 Delta: O_D= -0.3608680E-03 O_OD=  0.3646038E-04 O_TOT= -0.3244076E-03 <-- DLTA
 ------------------------------------------------------------------------------
 Cycle:     63
  WF centre and spread    1  (  2.453000,  0.459454,  2.471396 )     4.21361379
  WF centre and spread    2  ( -0.827954,  2.354468, -0.131715 )     4.21271861
  Sum of centres and spreads (  1.625047,  2.813922,  2.339680 )     8.42633240
 
     63    -0.237E-03     0.0848985150        8.4263323959       0.01  <-- CONV
        O_D=      2.9257853 O_OD=      0.3337354 O_TOT=      8.4263324 <-- SPRD
 Delta: O_D=  0.7344354E-03 O_OD= -0.9715118E-03 O_TOT= -0.2370764E-03 <-- DLTA
 ------------------------------------------------------------------------------
 Cycle:     64
  WF centre and spread    1  (  2.450817,  0.460935,  2.471376 )     4.21353262
  WF centre and spread    2  ( -0.825778,  2.352992, -0.131729 )     4.21265143
  Sum of centres and spreads (  1.625040,  2.813927,  2.339647 )     8.42618405
 
     64    -0.148E-03     0.1819347577        8.4261840528       0.01  <-- CONV
        O_D=      2.9258515 O_OD=      0.3335209 O_TOT=      8.4261841 <-- SPRD
 Delta: O_D=  0.6619868E-04 O_OD= -0.2145418E-03 O_TOT= -0.1483432E-03 <-- DLTA
 ------------------------------------------------------------------------------
 Cycle:     65
  WF centre and spread    1  (  2.451924,  0.461259,  2.471473 )     4.21337303
  WF centre and spread    2  ( -0.826912,  2.352685, -0.131604 )     4.21261486
  Sum of centres and spreads (  1.625012,  2.813944,  2.339870 )     8.42598789
 
     65    -0.196E-03     0.1000389733        8.4259878909       0.01  <-- CONV
        O_D=      2.9262812 O_OD=      0.3328950 O_TOT=      8.4259879 <-- SPRD
 Delta: O_D=  0.4297468E-03 O_OD= -0.6259087E-03 O_TOT= -0.1961619E-03 <-- DLTA
 ------------------------------------------------------------------------------
 Cycle:     66
  WF centre and spread    1  (  2.454287,  0.459258,  2.471789 )     4.21299164
  WF centre and spread    2  ( -0.829364,  2.354737, -0.131211 )     4.21259755
  Sum of centres and spreads (  1.624923,  2.813995,  2.340578 )     8.42558919
 
     66    -0.399E-03     0.1052044374        8.4255891941       0.01  <-- CONV
        O_D=      2.9279563 O_OD=      0.3308212 O_TOT=      8.4255892 <-- SPRD
 Delta: O_D=  0.1675113E-02 O_OD= -0.2073810E-02 O_TOT= -0.3986968E-03 <-- DLTA
 ------------------------------------------------------------------------------
 Cycle:     67
  WF centre and spread    1  (  2.448491,  0.462334,  2.471719 )     4.21287188
  WF centre and spread    2  ( -0.823576,  2.351665, -0.131278 )     4.21246525
  Sum of centres and spreads (  1.624915,  2.813999,  2.340441 )     8.42533713
 
     67    -0.252E-03     0.3299381128        8.4253371281       0.01  <-- CONV
        O_D=      2.9280394 O_OD=      0.3304860 O_TOT=      8.4253371 <-- SPRD
 Delta: O_D=  0.8308747E-04 O_OD= -0.3351534E-03 O_TOT= -0.2520660E-03 <-- DLTA
 ------------------------------------------------------------------------------
 Cycle:     68
  WF centre and spread    1  (  2.450263,  0.460774,  2.471791 )     4.21275353
  WF centre and spread    2  ( -0.825357,  2.353229, -0.131201 )     4.21238348
  Sum of centres and spreads (  1.624906,  2.814003,  2.340590 )     8.42513700
 
     68    -0.200E-03     0.2054775182        8.4251370014       0.01  <-- CONV
        O_D=      2.9281031 O_OD=      0.3302223 O_TOT=      8.4251370 <-- SPRD
 Delta: O_D=  0.6363665E-04 O_OD= -0.2637633E-03 O_TOT= -0.2001267E-03 <-- DLTA
 ------------------------------------------------------------------------------
 Cycle:     69
  WF centre and spread    1  (  2.448733,  0.462184,  2.471819 )     4.21269337
  WF centre and spread    2  ( -0.823839,  2.351826, -0.131165 )     4.21235090
  Sum of centres and spreads (  1.624894,  2.814010,  2.340654 )     8.42504428
 
     69    -0.927E-04     0.0861121957        8.4250442755       0.01  <-- CONV
        O_D=      2.9284524 O_OD=      0.3297801 O_TOT=      8.4250443 <-- SPRD
 Delta: O_D=  0.3493790E-03 O_OD= -0.4421049E-03 O_TOT= -0.9272598E-04 <-- DLTA
 ------------------------------------------------------------------------------
 Cycle:     70
  WF centre and spread    1  (  2.451503,  0.462235,  2.472040 )     4.21248611
  WF centre and spread    2  ( -0.826649,  2.351799, -0.130916 )     4.21226933
  Sum of centres and spreads (  1.624855,  2.814034,  2.341124 )     8.42475545
 
     70    -0.289E-03     0.1257949520        8.4247554491       0.01  <-- CONV
        O_D=      2.9294027 O_OD=      0.3285411 O_TOT=      8.4247554 <-- SPRD
 Delta: O_D=  0.9502485E-03 O_OD= -0.1239075E-02 O_TOT= -0.2888263E-03 <-- DLTA
 ------------------------------------------------------------------------------
 Cycle:     71
  WF centre and spread    1  (  2.446008,  0.465372,  2.472380 )     4.21209929
  WF centre and spread    2  ( -0.821245,  2.348713, -0.130525 )     4.21210354
  Sum of centres and spreads (  1.624763,  2.814086,  2.341855 )     8.42420284
 
     71    -0.553E-03     0.1404512211        8.4242028386       0.01  <-- CONV
        O_D=      2.9318798 O_OD=      0.3255114 O_TOT=      8.4242028 <-- SPRD
 Delta: O_D=  0.2477086E-02 O_OD= -0.3029697E-02 O_TOT= -0.5526106E-03 <-- DLTA
 ------------------------------------------------------------------------------
 Cycle:     72
  WF centre and spread    1  (  2.448900,  0.463494,  2.472426 )     4.21196994
  WF centre and spread    2  ( -0.824134,  2.350591, -0.130478 )     4.21198396
  Sum of centres and spreads (  1.624765,  2.814084,  2.341948 )     8.42395390
 
     72    -0.249E-03     0.3151108953        8.4239539032       0.01  <-- CONV
        O_D=      2.9315663 O_OD=      0.3255759 O_TOT=      8.4239539 <-- SPRD
 Delta: O_D= -0.3134470E-03 O_OD=  0.6451159E-04 O_TOT= -0.2489354E-03 <-- DLTA
 ------------------------------------------------------------------------------
 Cycle:     73
  WF centre and spread    1  (  2.448561,  0.462303,  2.472472 )     4.21194176
  WF centre and spread    2  ( -0.823801,  2.351783, -0.130433 )     4.21195479
  Sum of centres and spreads (  1.624761,  2.814086,  2.342039 )     8.42389656
 
     73    -0.573E-04     0.0620228918        8.4238965558       0.01  <-- CONV
        O_D=      2.9317815 O_OD=      0.3253033 O_TOT=      8.4238966 <-- SPRD
 Delta: O_D=  0.2152185E-03 O_OD= -0.2725659E-03 O_TOT= -0.5734741E-04 <-- DLTA
 ------------------------------------------------------------------------------
 Cycle:     74
  WF centre and spread    1  (  2.446729,  0.462369,  2.472505 )     4.21192163
  WF centre and spread    2  ( -0.821975,  2.351720, -0.130399 )     4.21192834
  Sum of centres and spreads (  1.624754,  2.814089,  2.342106 )     8.42384997
 
     74    -0.466E-04     0.0891593449        8.4238499709       0.01  <-- CONV
        O_D=      2.9321175 O_OD=      0.3249207 O_TOT=      8.4238500 <-- SPRD
 Delta: O_D=  0.3359989E-03 O_OD= -0.3825837E-03 O_TOT= -0.4658483E-04 <-- DLTA
 ------------------------------------------------------------------------------
 Cycle:     75
  WF centre and spread    1  (  2.440865,  0.460106,  2.473140 )     4.21169112
  WF centre and spread    2  ( -0.816187,  2.354027, -0.129753 )     4.21167631
  Sum of centres and spreads (  1.624677,  2.814133,  2.343387 )     8.42336743
 
     75    -0.483E-03     0.0959125677        8.4233674300       0.01  <-- CONV
        O_D=      2.9357793 O_OD=      0.3207765 O_TOT=      8.4233674 <-- SPRD
 Delta: O_D=  0.3661729E-02 O_OD= -0.4144270E-02 O_TOT= -0.4825409E-03 <-- DLTA
 ------------------------------------------------------------------------------
 Cycle:     76
  WF centre and spread    1  (  2.443619,  0.459121,  2.473175 )     4.21158554
  WF centre and spread    2  ( -0.818940,  2.355011, -0.129718 )     4.21157825
  Sum of centres and spreads (  1.624679,  2.814132,  2.343457 )     8.42316379
 
     76    -0.204E-03     0.2933875185        8.4231637865       0.01  <-- CONV
        O_D=      2.9355158 O_OD=      0.3208363 O_TOT=      8.4231638 <-- SPRD
 Delta: O_D= -0.2634629E-03 O_OD=  0.5981935E-04 O_TOT= -0.2036436E-03 <-- DLTA
 ------------------------------------------------------------------------------
 Cycle:     77
  WF centre and spread    1  (  2.446150,  0.461019,  2.473207 )     4.21152201
  WF centre and spread    2  ( -0.821472,  2.353113, -0.129687 )     4.21151564
  Sum of centres and spreads (  1.624679,  2.814132,  2.343520 )     8.42303765
 
     77    -0.126E-03     0.1120774612        8.4230376509       0.01  <-- CONV
        O_D=      2.9354581 O_OD=      0.3207678 O_TOT=      8.4230377 <-- SPRD
 Delta: O_D= -0.5768412E-04 O_OD= -0.6845150E-04 O_TOT= -0.1261356E-03 <-- DLTA
 ------------------------------------------------------------------------------
 Cycle:     78
  WF centre and spread    1  (  2.446375,  0.465425,  2.473214 )     4.21149063
  WF centre and spread    2  ( -0.821700,  2.348711, -0.129680 )     4.21147489
  Sum of centres and spreads (  1.624675,  2.814136,  2.343535 )     8.42296553
 
     78    -0.721E-04     0.1400949588        8.4229655255       0.01  <-- CONV
        O_D=      2.9356137 O_OD=      0.3205401 O_TOT=      8.4229655 <-- SPRD
 Delta: O_D=  0.1555811E-03 O_OD= -0.2277065E-03 O_TOT= -0.7212541E-04 <-- DLTA
 ------------------------------------------------------------------------------
 Cycle:     79
  WF centre and spread    1  (  2.447177,  0.465430,  2.473236 )     4.21148440
  WF centre and spread    2  ( -0.822503,  2.348706, -0.129658 )     4.21146886
  Sum of centres and spreads (  1.624674,  2.814136,  2.343579 )     8.42295326
 
     79    -0.123E-04     0.0704092358        8.4229532617       0.01  <-- CONV
        O_D=      2.9356614 O_OD=      0.3204802 O_TOT=      8.4229533 <-- SPRD
 Delta: O_D=  0.4770416E-04 O_OD= -0.5996793E-04 O_TOT= -0.1226377E-04 <-- DLTA
 ------------------------------------------------------------------------------
 Cycle:     80
  WF centre and spread    1  (  2.446929,  0.463446,  2.473357 )     4.21144954
  WF centre and spread    2  ( -0.822265,  2.350696, -0.129537 )     4.21142222
  Sum of centres and spreads (  1.624664,  2.814141,  2.343819 )     8.42287176
 
     80    -0.815E-04     0.0541169164        8.4228717631       0.01  <-- CONV
        O_D=      2.9361693 O_OD=      0.3198907 O_TOT=      8.4228718 <-- SPRD
 Delta: O_D=  0.5079156E-03 O_OD= -0.5894141E-03 O_TOT= -0.8149854E-04 <-- DLTA
 ------------------------------------------------------------------------------
 Cycle:     81
  WF centre and spread    1  (  2.445597,  0.464204,  2.473346 )     4.21143365
  WF centre and spread    2  ( -0.820935,  2.349939, -0.129548 )     4.21140025
  Sum of centres and spreads (  1.624662,  2.814142,  2.343798 )     8.42283389
 
     81    -0.379E-04     0.1079688006        8.4228338947       0.01  <-- CONV
        O_D=      2.9362167 O_OD=      0.3198055 O_TOT=      8.4228339 <-- SPRD
 Delta: O_D=  0.4739798E-04 O_OD= -0.8526645E-04 O_TOT= -0.3786847E-04 <-- DLTA
 ------------------------------------------------------------------------------
 Cycle:     82
  WF centre and spread    1  (  2.445846,  0.464029,  2.473364 )     4.21142198
  WF centre and spread    2  ( -0.821184,  2.350113, -0.129531 )     4.21138593
  Sum of centres and spreads (  1.624662,  2.814143,  2.343832 )     8.42280791
 
     82    -0.260E-04     0.0733648893        8.4228079084       0.01  <-- CONV
        O_D=      2.9362729 O_OD=      0.3197233 O_TOT=      8.4228079 <-- SPRD
 Delta: O_D=  0.5614746E-04 O_OD= -0.8213377E-04 O_TOT= -0.2598632E-04 <-- DLTA
 ------------------------------------------------------------------------------
 Cycle:     83
  WF centre and spread    1  (  2.445196,  0.461705,  2.474261 )     4.21128582
  WF centre and spread    2  ( -0.820617,  2.352484, -0.128637 )     4.21114172
  Sum of centres and spreads (  1.624580,  2.814189,  2.345623 )     8.42242755
 
     83    -0.380E-03     0.0373789065        8.4224275463       0.01  <-- CONV
        O_D=      2.9405645 O_OD=      0.3150513 O_TOT=      8.4224275 <-- SPRD
 Delta: O_D=  0.4291668E-02 O_OD= -0.4672030E-02 O_TOT= -0.3803621E-03 <-- DLTA
 ------------------------------------------------------------------------------
 Cycle:     84
  WF centre and spread    1  (  2.441537,  0.464636,  2.474218 )     4.21122956
  WF centre and spread    2  ( -0.816962,  2.349556, -0.128681 )     4.21107125
  Sum of centres and spreads (  1.624576,  2.814192,  2.345537 )     8.42230081
 
     84    -0.127E-03     0.2885887586        8.4223008097       0.01  <-- CONV
        O_D=      2.9405814 O_OD=      0.3149078 O_TOT=      8.4223008 <-- SPRD
 Delta: O_D=  0.1682199E-04 O_OD= -0.1435586E-03 O_TOT= -0.1267366E-03 <-- DLTA
 ------------------------------------------------------------------------------
 Cycle:     85
  WF centre and spread    1  (  2.442786,  0.465058,  2.474230 )     4.21118156
  WF centre and spread    2  ( -0.818209,  2.349133, -0.128668 )     4.21102551
  Sum of centres and spreads (  1.624577,  2.814191,  2.345562 )     8.42220706
 
     85    -0.937E-04     0.2370567010        8.4222070618       0.01  <-- CONV
        O_D=      2.9405021 O_OD=      0.3148933 O_TOT=      8.4222071 <-- SPRD
 Delta: O_D= -0.7929740E-04 O_OD= -0.1445049E-04 O_TOT= -0.9374789E-04 <-- DLTA
 ------------------------------------------------------------------------------
 Cycle:     86
  WF centre and spread    1  (  2.443585,  0.464763,  2.474240 )     4.21117209
  WF centre and spread    2  ( -0.819007,  2.349428, -0.128658 )     4.21101860
  Sum of centres and spreads (  1.624577,  2.814191,  2.345583 )     8.42219069
 
     86    -0.164E-04     0.1007894453        8.4221906860       0.01  <-- CONV
        O_D=      2.9404731 O_OD=      0.3149059 O_TOT=      8.4221907 <-- SPRD
 Delta: O_D= -0.2899525E-04 O_OD=  0.1261942E-04 O_TOT= -0.1637583E-04 <-- DLTA
 ------------------------------------------------------------------------------
 Cycle:     87
  WF centre and spread    1  (  2.444224,  0.464689,  2.474252 )     4.21116513
  WF centre and spread    2  ( -0.819647,  2.349502, -0.128646 )     4.21101356
  Sum of centres and spreads (  1.624577,  2.814191,  2.345606 )     8.42217870
 
     87    -0.120E-04     0.0543297709        8.4221786986       0.01  <-- CONV
        O_D=      2.9404716 O_OD=      0.3148954 O_TOT=      8.4221787 <-- SPRD
 Delta: O_D= -0.1510590E-05 O_OD= -0.1047677E-04 O_TOT= -0.1198736E-04 <-- DLTA
 ------------------------------------------------------------------------------
 Cycle:     88
  WF centre and spread    1  (  2.444093,  0.464913,  2.474254 )     4.21116292
  WF centre and spread    2  ( -0.819517,  2.349278, -0.128644 )     4.21101071
  Sum of centres and spreads (  1.624577,  2.814192,  2.345610 )     8.42217363
 
     88    -0.507E-05     0.0575851666        8.4221736322       0.01  <-- CONV
        O_D=      2.9404906 O_OD=      0.3148713 O_TOT=      8.4221736 <-- SPRD
 Delta: O_D=  0.1908305E-04 O_OD= -0.2414951E-04 O_TOT= -0.5066464E-05 <-- DLTA
 ------------------------------------------------------------------------------
 Cycle:     89
  WF centre and spread    1  (  2.443847,  0.465114,  2.474254 )     4.21116253
  WF centre and spread    2  ( -0.819270,  2.349078, -0.128644 )     4.21100933
  Sum of centres and spreads (  1.624576,  2.814192,  2.345610 )     8.42217186
 
     89    -0.177E-05     0.0320689480        8.4221718587       0.01  <-- CONV
        O_D=      2.9405113 O_OD=      0.3148489 O_TOT=      8.4221719 <-- SPRD
 Delta: O_D=  0.2062809E-04 O_OD= -0.2240157E-04 O_TOT= -0.1773473E-05 <-- DLTA
 ------------------------------------------------------------------------------
 Cycle:     90
  WF centre and spread    1  (  2.444063,  0.464993,  2.474262 )     4.21116058
  WF centre and spread    2  ( -0.819487,  2.349199, -0.128636 )     4.21100792
  Sum of centres and spreads (  1.624576,  2.814192,  2.345626 )     8.42216850
 
     90    -0.336E-05     0.0243739336        8.4221685013       0.01  <-- CONV
        O_D=      2.9405323 O_OD=      0.3148245 O_TOT=      8.4221685 <-- SPRD
 Delta: O_D=  0.2107532E-04 O_OD= -0.2443270E-04 O_TOT= -0.3357379E-05 <-- DLTA
 ------------------------------------------------------------------------------
 Cycle:     91
  WF centre and spread    1  (  2.443716,  0.465195,  2.474269 )     4.21115928
  WF centre and spread    2  ( -0.819142,  2.348997, -0.128628 )     4.21100510
  Sum of centres and spreads (  1.624575,  2.814193,  2.345641 )     8.42216438
 
     91    -0.412E-05     0.0298803635        8.4221643799       0.01  <-- CONV
        O_D=      2.9405974 O_OD=      0.3147553 O_TOT=      8.4221644 <-- SPRD
 Delta: O_D=  0.6503746E-04 O_OD= -0.6915888E-04 O_TOT= -0.4121420E-05 <-- DLTA
 ------------------------------------------------------------------------------
 Cycle:     92
  WF centre and spread    1  (  2.441829,  0.466233,  2.474615 )     4.21112054
  WF centre and spread    2  ( -0.817288,  2.347979, -0.128281 )     4.21095369
  Sum of centres and spreads (  1.624541,  2.814212,  2.346334 )     8.42207423
 
     92    -0.901E-04     0.0274730458        8.4220742306       0.01  <-- CONV
        O_D=      2.9423426 O_OD=      0.3129200 O_TOT=      8.4220742 <-- SPRD
 Delta: O_D=  0.1745173E-02 O_OD= -0.1835322E-02 O_TOT= -0.9014926E-04 <-- DLTA
 ------------------------------------------------------------------------------
 Cycle:     93
  WF centre and spread    1  (  2.443135,  0.465483,  2.474629 )     4.21109363
  WF centre and spread    2  ( -0.818592,  2.348728, -0.128266 )     4.21093126
  Sum of centres and spreads (  1.624543,  2.814211,  2.346363 )     8.42202489
 
     93    -0.493E-04     0.1801059130        8.4220248904       0.01  <-- CONV
        O_D=      2.9422587 O_OD=      0.3129545 O_TOT=      8.4220249 <-- SPRD
 Delta: O_D= -0.8384459E-04 O_OD=  0.3450440E-04 O_TOT= -0.4934018E-04 <-- DLTA
 ------------------------------------------------------------------------------
 Cycle:     94
  WF centre and spread    1  (  2.443295,  0.465407,  2.474633 )     4.21109142
  WF centre and spread    2  ( -0.818752,  2.348804, -0.128262 )     4.21092922
  Sum of centres and spreads (  1.624543,  2.814211,  2.346371 )     8.42202064
 
     94    -0.425E-05     0.0321001051        8.4220206448       0.01  <-- CONV
        O_D=      2.9422631 O_OD=      0.3129459 O_TOT=      8.4220206 <-- SPRD
 Delta: O_D=  0.4353263E-05 O_OD= -0.8598871E-05 O_TOT= -0.4245608E-05 <-- DLTA
 ------------------------------------------------------------------------------
 Cycle:     95
  WF centre and spread    1  (  2.443094,  0.465532,  2.474633 )     4.21109126
  WF centre and spread    2  ( -0.818552,  2.348679, -0.128263 )     4.21092814
  Sum of centres and spreads (  1.624543,  2.814211,  2.346370 )     8.42201939
 
     95    -0.125E-05     0.0260728765        8.4220193940       0.01  <-- CONV
        O_D=      2.9422775 O_OD=      0.3129302 O_TOT=      8.4220194 <-- SPRD
 Delta: O_D=  0.1439061E-04 O_OD= -0.1564144E-04 O_TOT= -0.1250828E-05 <-- DLTA
 ------------------------------------------------------------------------------
 Cycle:     96
  WF centre and spread    1  (  2.442879,  0.465679,  2.474637 )     4.21109129
  WF centre and spread    2  ( -0.818337,  2.348532, -0.128258 )     4.21092692
  Sum of centres and spreads (  1.624542,  2.814211,  2.346379 )     8.42201821
 
     96    -0.119E-05     0.0120363207        8.4220182076       0.01  <-- CONV
        O_D=      2.9423141 O_OD=      0.3128924 O_TOT=      8.4220182 <-- SPRD
 Delta: O_D=  0.3666983E-04 O_OD= -0.3785620E-04 O_TOT= -0.1186363E-05 <-- DLTA
 ------------------------------------------------------------------------------
 Cycle:     97
  WF centre and spread    1  (  2.443106,  0.465547,  2.474640 )     4.21109026
  WF centre and spread    2  ( -0.818564,  2.348664, -0.128255 )     4.21092662
  Sum of centres and spreads (  1.624542,  2.814211,  2.346385 )     8.42201688
 
     97    -0.133E-05     0.0282672133        8.4220168793       0.01  <-- CONV
        O_D=      2.9423105 O_OD=      0.3128947 O_TOT=      8.4220169 <-- SPRD
 Delta: O_D= -0.3629063E-05 O_OD=  0.2300772E-05 O_TOT= -0.1328291E-05 <-- DLTA
 ------------------------------------------------------------------------------
 Cycle:     98
  WF centre and spread    1  (  2.443329,  0.465402,  2.474670 )     4.21108859
  WF centre and spread    2  ( -0.818787,  2.348810, -0.128225 )     4.21092397
  Sum of centres and spreads (  1.624541,  2.814212,  2.346445 )     8.42201256
 
     98    -0.432E-05     0.0102055824        8.4220125632       0.01  <-- CONV
        O_D=      2.9424261 O_OD=      0.3127748 O_TOT=      8.4220126 <-- SPRD
 Delta: O_D=  0.1156258E-03 O_OD= -0.1199420E-03 O_TOT= -0.4316171E-05 <-- DLTA
 ------------------------------------------------------------------------------
 Cycle:     99
  WF centre and spread    1  (  2.442955,  0.465619,  2.474667 )     4.21108775
  WF centre and spread    2  ( -0.818414,  2.348593, -0.128228 )     4.21092170
  Sum of centres and spreads (  1.624541,  2.814212,  2.346439 )     8.42200945
 
     99    -0.311E-05     0.0397037112        8.4220094533       0.01  <-- CONV
        O_D=      2.9424400 O_OD=      0.3127578 O_TOT=      8.4220095 <-- SPRD
 Delta: O_D=  0.1385040E-04 O_OD= -0.1696023E-04 O_TOT= -0.3109831E-05 <-- DLTA
 ------------------------------------------------------------------------------
[...]
  Sum of centres and spreads (  1.624518,  2.814225,  2.347376 )     8.42192763
 
    150    -0.159E-06     0.0105156484        8.4219276275       0.02  <-- CONV
        O_D=      2.9445681 O_OD=      0.3105479 O_TOT=      8.4219276 <-- SPRD
 Delta: O_D=  0.2590603E-05 O_OD= -0.2749615E-05 O_TOT= -0.1590115E-06 <-- DLTA
 ------------------------------------------------------------------------------
 Cycle:    151
  WF centre and spread    1  (  2.442032,  0.466150,  2.475136 )     4.21105619
  WF centre and spread    2  ( -0.817514,  2.348076, -0.127759 )     4.21087139
  Sum of centres and spreads (  1.624518,  2.814225,  2.347377 )     8.42192758
 
    151    -0.507E-07     0.0029924224        8.4219275767       0.02  <-- CONV
        O_D=      2.9445692 O_OD=      0.3105466 O_TOT=      8.4219276 <-- SPRD
 Delta: O_D=  0.1174549E-05 O_OD= -0.1225276E-05 O_TOT= -0.5072737E-07 <-- DLTA
 ------------------------------------------------------------------------------
 Cycle:    152
  WF centre and spread    1  (  2.442020,  0.466205,  2.475137 )     4.21105624
  WF centre and spread    2  ( -0.817502,  2.348021, -0.127759 )     4.21087131
  Sum of centres and spreads (  1.624518,  2.814225,  2.347378 )     8.42192754
 
    152    -0.330E-07     0.0015634942        8.4219275437       0.02  <-- CONV
        O_D=      2.9445746 O_OD=      0.3105413 O_TOT=      8.4219275 <-- SPRD
 Delta: O_D=  0.5324761E-05 O_OD= -0.5357773E-05 O_TOT= -0.3301187E-07 <-- DLTA
 ------------------------------------------------------------------------------
 Cycle:    153
  WF centre and spread    1  (  2.442048,  0.466182,  2.475137 )     4.21105617
  WF centre and spread    2  ( -0.817530,  2.348043, -0.127758 )     4.21087135
  Sum of centres and spreads (  1.624518,  2.814225,  2.347379 )     8.42192752
 
    153    -0.227E-07     0.0038683787        8.4219275211       0.02  <-- CONV
        O_D=      2.9445740 O_OD=      0.3105418 O_TOT=      8.4219275 <-- SPRD
 Delta: O_D= -0.5334825E-06 O_OD=  0.5108235E-06 O_TOT= -0.2265892E-07 <-- DLTA
 ------------------------------------------------------------------------------
 Cycle:    154
  WF centre and spread    1  (  2.442002,  0.466114,  2.475139 )     4.21105615
  WF centre and spread    2  ( -0.817484,  2.348111, -0.127757 )     4.21087131
  Sum of centres and spreads (  1.624518,  2.814225,  2.347382 )     8.42192747
 
    154    -0.524E-07     0.0014850773        8.4219274686       0.02  <-- CONV
        O_D=      2.9445808 O_OD=      0.3105350 O_TOT=      8.4219275 <-- SPRD
 Delta: O_D=  0.6764721E-05 O_OD= -0.6817154E-05 O_TOT= -0.5243326E-07 <-- DLTA
 ------------------------------------------------------------------------------
 Cycle:    155
  WF centre and spread    1  (  2.441906,  0.466095,  2.475144 )     4.21105621
  WF centre and spread    2  ( -0.817388,  2.348130, -0.127751 )     4.21087110
  Sum of centres and spreads (  1.624518,  2.814225,  2.347393 )     8.42192731
 
    155    -0.163E-06     0.0024205409        8.4219273057       0.02  <-- CONV
        O_D=      2.9446099 O_OD=      0.3105057 O_TOT=      8.4219273 <-- SPRD
 Delta: O_D=  0.2909811E-04 O_OD= -0.2926099E-04 O_TOT= -0.1628873E-06 <-- DLTA
 ------------------------------------------------------------------------------
 Cycle:    156
  WF centre and spread    1  (  2.441979,  0.466079,  2.475145 )     4.21105605
  WF centre and spread    2  ( -0.817461,  2.348146, -0.127750 )     4.21087116
  Sum of centres and spreads (  1.624518,  2.814225,  2.347394 )     8.42192721
 
    156    -0.950E-07     0.0075042671        8.4219272108       0.02  <-- CONV
        O_D=      2.9446084 O_OD=      0.3105071 O_TOT=      8.4219272 <-- SPRD
 Delta: O_D= -0.1507367E-05 O_OD=  0.1412387E-05 O_TOT= -0.9498032E-07 <-- DLTA
 ------------------------------------------------------------------------------
 Cycle:    157
  WF centre and spread    1  (  2.442012,  0.466164,  2.475145 )     4.21105603
  WF centre and spread    2  ( -0.817494,  2.348061, -0.127750 )     4.21087110
  Sum of centres and spreads (  1.624518,  2.814225,  2.347395 )     8.42192713
 
    157    -0.801E-07     0.0035482240        8.4219271307       0.02  <-- CONV
        O_D=      2.9446103 O_OD=      0.3105052 O_TOT=      8.4219271 <-- SPRD
 Delta: O_D=  0.1870041E-05 O_OD= -0.1950137E-05 O_TOT= -0.8009528E-07 <-- DLTA
 ------------------------------------------------------------------------------
 Cycle:    158
  WF centre and spread    1  (  2.442019,  0.466204,  2.475146 )     4.21105604
  WF centre and spread    2  ( -0.817501,  2.348022, -0.127750 )     4.21087106
  Sum of centres and spreads (  1.624518,  2.814226,  2.347396 )     8.42192711
 
    158    -0.232E-07     0.0015709365        8.4219271075       0.02  <-- CONV
        O_D=      2.9446130 O_OD=      0.3105024 O_TOT=      8.4219271 <-- SPRD
 Delta: O_D=  0.2745709E-05 O_OD= -0.2768909E-05 O_TOT= -0.2319967E-07 <-- DLTA
 ------------------------------------------------------------------------------
 Cycle:    159
  WF centre and spread    1  (  2.442046,  0.466199,  2.475146 )     4.21105599
  WF centre and spread    2  ( -0.817528,  2.348026, -0.127749 )     4.21087110
  Sum of centres and spreads (  1.624518,  2.814225,  2.347397 )     8.42192709
 
    159    -0.152E-07     0.0018708803        8.4219270923       0.02  <-- CONV
        O_D=      2.9446148 O_OD=      0.3105006 O_TOT=      8.4219271 <-- SPRD
 Delta: O_D=  0.1806598E-05 O_OD= -0.1821796E-05 O_TOT= -0.1519780E-07 <-- DLTA
 ------------------------------------------------------------------------------
 Cycle:    160
  WF centre and spread    1  (  2.441996,  0.466228,  2.475168 )     4.21105589
  WF centre and spread    2  ( -0.817479,  2.347998, -0.127728 )     4.21087071
  Sum of centres and spreads (  1.624517,  2.814226,  2.347440 )     8.42192659
 
    160    -0.500E-06     0.0026642427        8.4219265918       0.02  <-- CONV
        O_D=      2.9447109 O_OD=      0.3104040 O_TOT=      8.4219266 <-- SPRD
 Delta: O_D=  0.9612904E-04 O_OD= -0.9662954E-04 O_TOT= -0.5004982E-06 <-- DLTA
 ------------------------------------------------------------------------------
 Cycle:    161
  WF centre and spread    1  (  2.441963,  0.466222,  2.475167 )     4.21105578
  WF centre and spread    2  ( -0.817446,  2.348004, -0.127728 )     4.21087052
  Sum of centres and spreads (  1.624517,  2.814226,  2.347439 )     8.42192630
 
    161    -0.293E-06     0.0083094522        8.4219262983       0.02  <-- CONV
        O_D=      2.9447117 O_OD=      0.3104029 O_TOT=      8.4219263 <-- SPRD
 Delta: O_D=  0.7635808E-06 O_OD= -0.1057000E-05 O_TOT= -0.2934195E-06 <-- DLTA
 ------------------------------------------------------------------------------
 Cycle:    162
  WF centre and spread    1  (  2.441977,  0.466209,  2.475168 )     4.21105574
  WF centre and spread    2  ( -0.817460,  2.348017, -0.127728 )     4.21087055
  Sum of centres and spreads (  1.624517,  2.814226,  2.347440 )     8.42192629
 
    162    -0.678E-08     0.0020094526        8.4219262916       0.02  <-- CONV
        O_D=      2.9447114 O_OD=      0.3104032 O_TOT=      8.4219263 <-- SPRD
 Delta: O_D= -0.3022697E-06 O_OD=  0.2954914E-06 O_TOT= -0.6778270E-08 <-- DLTA
 ------------------------------------------------------------------------------
 Cycle:    163
  WF centre and spread    1  (  2.441964,  0.466197,  2.475168 )     4.21105575
  WF centre and spread    2  ( -0.817447,  2.348029, -0.127728 )     4.21087054
  Sum of centres and spreads (  1.624517,  2.814226,  2.347440 )     8.42192628
 
    163    -0.739E-08     0.0009222755        8.4219262842       0.02  <-- CONV
        O_D=      2.9447125 O_OD=      0.3104021 O_TOT=      8.4219263 <-- SPRD
 Delta: O_D=  0.1134307E-05 O_OD= -0.1141695E-05 O_TOT= -0.7387875E-08 <-- DLTA
 ------------------------------------------------------------------------------
 Cycle:    164
  WF centre and spread    1  (  2.441929,  0.466134,  2.475170 )     4.21105573
  WF centre and spread    2  ( -0.817412,  2.348092, -0.127725 )     4.21087051
  Sum of centres and spreads (  1.624517,  2.814226,  2.347445 )     8.42192624
 
    164    -0.440E-07     0.0009318745        8.4219262401       0.02  <-- CONV
        O_D=      2.9447234 O_OD=      0.3103911 O_TOT=      8.4219262 <-- SPRD
 Delta: O_D=  0.1090140E-04 O_OD= -0.1094544E-04 O_TOT= -0.4403670E-07 <-- DLTA
 ------------------------------------------------------------------------------
 Cycle:    165
  WF centre and spread    1  (  2.441932,  0.466191,  2.475170 )     4.21105575
  WF centre and spread    2  ( -0.817415,  2.348035, -0.127725 )     4.21087046
  Sum of centres and spreads (  1.624517,  2.814226,  2.347445 )     8.42192621
 
    165    -0.299E-07     0.0022802222        8.4219262103       0.02  <-- CONV
        O_D=      2.9447245 O_OD=      0.3103900 O_TOT=      8.4219262 <-- SPRD
 Delta: O_D=  0.1078461E-05 O_OD= -0.1108347E-05 O_TOT= -0.2988569E-07 <-- DLTA
 ------------------------------------------------------------------------------
 Cycle:    166
  WF centre and spread    1  (  2.441963,  0.466204,  2.475170 )     4.21105571
  WF centre and spread    2  ( -0.817446,  2.348022, -0.127725 )     4.21087048
  Sum of centres and spreads (  1.624517,  2.814226,  2.347446 )     8.42192620
 
    166    -0.121E-07     0.0024317043        8.4219261982       0.02  <-- CONV
        O_D=      2.9447244 O_OD=      0.3103901 O_TOT=      8.4219262 <-- SPRD
 Delta: O_D= -0.1588470E-06 O_OD=  0.1467507E-06 O_TOT= -0.1209627E-07 <-- DLTA
 ------------------------------------------------------------------------------
 Cycle:    167
  WF centre and spread    1  (  2.441970,  0.466215,  2.475171 )     4.21105571
  WF centre and spread    2  ( -0.817453,  2.348011, -0.127725 )     4.21087048
  Sum of centres and spreads (  1.624517,  2.814226,  2.347446 )     8.42192619
 
    167    -0.646E-08     0.0007143781        8.4219261917       0.02  <-- CONV
        O_D=      2.9447256 O_OD=      0.3103889 O_TOT=      8.4219262 <-- SPRD
 Delta: O_D=  0.1224478E-05 O_OD= -0.1230936E-05 O_TOT= -0.6458206E-08 <-- DLTA
 ------------------------------------------------------------------------------
 Cycle:    168
  WF centre and spread    1  (  2.441940,  0.466236,  2.475172 )     4.21105576
  WF centre and spread    2  ( -0.817423,  2.347990, -0.127724 )     4.21087041
  Sum of centres and spreads (  1.624517,  2.814226,  2.347448 )     8.42192617
 
    168    -0.217E-07     0.0009555284        8.4219261699       0.02  <-- CONV
        O_D=      2.9447326 O_OD=      0.3103819 O_TOT=      8.4219262 <-- SPRD
 Delta: O_D=  0.6983710E-05 O_OD= -0.7005460E-05 O_TOT= -0.2175000E-07 <-- DLTA
 ------------------------------------------------------------------------------
 Cycle:    169
  WF centre and spread    1  (  2.441968,  0.466217,  2.475172 )     4.21105570
  WF centre and spread    2  ( -0.817451,  2.348009, -0.127723 )     4.21087045
  Sum of centres and spreads (  1.624517,  2.814226,  2.347449 )     8.42192615
 
    169    -0.201E-07     0.0037848503        8.4219261498       0.02  <-- CONV
        O_D=      2.9447318 O_OD=      0.3103826 O_TOT=      8.4219261 <-- SPRD
 Delta: O_D= -0.7434616E-06 O_OD=  0.7233605E-06 O_TOT= -0.2010114E-07 <-- DLTA
 ------------------------------------------------------------------------------
 Cycle:    170
  WF centre and spread    1  (  2.441959,  0.466207,  2.475172 )     4.21105570
  WF centre and spread    2  ( -0.817442,  2.348019, -0.127723 )     4.21087045
  Sum of centres and spreads (  1.624517,  2.814226,  2.347449 )     8.42192614
 
    170    -0.626E-08     0.0009629140        8.4219261436       0.02  <-- CONV
        O_D=      2.9447324 O_OD=      0.3103820 O_TOT=      8.4219261 <-- SPRD
 Delta: O_D=  0.5778663E-06 O_OD= -0.5841222E-06 O_TOT= -0.6255920E-08 <-- DLTA
 ------------------------------------------------------------------------------
 Cycle:    171
  WF centre and spread    1  (  2.441924,  0.466186,  2.475173 )     4.21105572
  WF centre and spread    2  ( -0.817407,  2.348040, -0.127722 )     4.21087041
  Sum of centres and spreads (  1.624517,  2.814226,  2.347451 )     8.42192613
 
    171    -0.144E-07     0.0006345042        8.4219261292       0.02  <-- CONV
        O_D=      2.9447368 O_OD=      0.3103777 O_TOT=      8.4219261 <-- SPRD
 Delta: O_D=  0.4360224E-05 O_OD= -0.4374658E-05 O_TOT= -0.1443343E-07 <-- DLTA
 ------------------------------------------------------------------------------
 Cycle:    172
  WF centre and spread    1  (  2.441945,  0.466181,  2.475173 )     4.21105568
  WF centre and spread    2  ( -0.817429,  2.348045, -0.127722 )     4.21087044
  Sum of centres and spreads (  1.624517,  2.814226,  2.347451 )     8.42192612
 
    172    -0.791E-08     0.0022415364        8.4219261213       0.02  <-- CONV
        O_D=      2.9447363 O_OD=      0.3103781 O_TOT=      8.4219261 <-- SPRD
 Delta: O_D= -0.4164455E-06 O_OD=  0.4085404E-06 O_TOT= -0.7905090E-08 <-- DLTA
 ------------------------------------------------------------------------------
 Cycle:    173
  WF centre and spread    1  (  2.441961,  0.466216,  2.475173 )     4.21105569
  WF centre and spread    2  ( -0.817445,  2.348010, -0.127722 )     4.21087043
  Sum of centres and spreads (  1.624517,  2.814226,  2.347451 )     8.42192611
 
    173    -0.901E-08     0.0009590278        8.4219261122       0.02  <-- CONV
        O_D=      2.9447372 O_OD=      0.3103772 O_TOT=      8.4219261 <-- SPRD
 Delta: O_D=  0.8850601E-06 O_OD= -0.8940673E-06 O_TOT= -0.9007188E-08 <-- DLTA
 ------------------------------------------------------------------------------
 Cycle:    174
  WF centre and spread    1  (  2.441952,  0.466232,  2.475174 )     4.21105570
  WF centre and spread    2  ( -0.817435,  2.347994, -0.127721 )     4.21087039
  Sum of centres and spreads (  1.624517,  2.814226,  2.347453 )     8.42192610
 
    174    -0.159E-07     0.0005817035        8.4219260964       0.02  <-- CONV
        O_D=      2.9447423 O_OD=      0.3103721 O_TOT=      8.4219261 <-- SPRD
 Delta: O_D=  0.5030157E-05 O_OD= -0.5046047E-05 O_TOT= -0.1588947E-07 <-- DLTA
 ------------------------------------------------------------------------------
 Cycle:    175
  WF centre and spread    1  (  2.441968,  0.466217,  2.475174 )     4.21105566
  WF centre and spread    2  ( -0.817451,  2.348009, -0.127721 )     4.21087042
  Sum of centres and spreads (  1.624517,  2.814226,  2.347454 )     8.42192609
 
    175    -0.107E-07     0.0022335042        8.4219260857       0.02  <-- CONV
        O_D=      2.9447419 O_OD=      0.3103725 O_TOT=      8.4219261 <-- SPRD
 Delta: O_D= -0.4108601E-06 O_OD=  0.4002032E-06 O_TOT= -0.1065689E-07 <-- DLTA
 ------------------------------------------------------------------------------
 Cycle:    176
  WF centre and spread    1  (  2.441956,  0.466214,  2.475174 )     4.21105568
  WF centre and spread    2  ( -0.817439,  2.348012, -0.127721 )     4.21087040
  Sum of centres and spreads (  1.624517,  2.814226,  2.347453 )     8.42192608
 
    176    -0.560E-08     0.0013386346        8.4219260801       0.02  <-- CONV
        O_D=      2.9447423 O_OD=      0.3103721 O_TOT=      8.4219261 <-- SPRD
 Delta: O_D=  0.4806242E-06 O_OD= -0.4862210E-06 O_TOT= -0.5596791E-08 <-- DLTA
 ------------------------------------------------------------------------------
 Cycle:    177
  WF centre and spread    1  (  2.441936,  0.466182,  2.475175 )     4.21105567
  WF centre and spread    2  ( -0.817419,  2.348044, -0.127720 )     4.21087040
  Sum of centres and spreads (  1.624517,  2.814226,  2.347455 )     8.42192607
 
    177    -0.956E-08     0.0005518509        8.4219260705       0.02  <-- CONV
        O_D=      2.9447448 O_OD=      0.3103696 O_TOT=      8.4219261 <-- SPRD
 Delta: O_D=  0.2452258E-05 O_OD= -0.2461823E-05 O_TOT= -0.9564729E-08 <-- DLTA
 ------------------------------------------------------------------------------
 Cycle:    178
  WF centre and spread    1  (  2.441955,  0.466211,  2.475175 )     4.21105567
  WF centre and spread    2  ( -0.817438,  2.348015, -0.127720 )     4.21087040
  Sum of centres and spreads (  1.624517,  2.814226,  2.347455 )     8.42192606
 
    178    -0.881E-08     0.0009701781        8.4219260617       0.02  <-- CONV
        O_D=      2.9447453 O_OD=      0.3103691 O_TOT=      8.4219261 <-- SPRD
 Delta: O_D=  0.5323256E-06 O_OD= -0.5411346E-06 O_TOT= -0.8809019E-08 <-- DLTA
 ------------------------------------------------------------------------------
 Cycle:    179
  WF centre and spread    1  (  2.441953,  0.466225,  2.475175 )     4.21105568
  WF centre and spread    2  ( -0.817436,  2.348001, -0.127720 )     4.21087038
  Sum of centres and spreads (  1.624517,  2.814226,  2.347455 )     8.42192606
 
    179    -0.398E-08     0.0005840817        8.4219260577       0.02  <-- CONV
        O_D=      2.9447465 O_OD=      0.3103679 O_TOT=      8.4219261 <-- SPRD
 Delta: O_D=  0.1157502E-05 O_OD= -0.1161482E-05 O_TOT= -0.3980137E-08 <-- DLTA
 ------------------------------------------------------------------------------
 Cycle:    180
  WF centre and spread    1  (  2.441960,  0.466217,  2.475175 )     4.21105566
  WF centre and spread    2  ( -0.817443,  2.348009, -0.127720 )     4.21087040
  Sum of centres and spreads (  1.624517,  2.814226,  2.347455 )     8.42192606
 
    180    -0.213E-08     0.0010279111        8.4219260556       0.02  <-- CONV
        O_D=      2.9447463 O_OD=      0.3103680 O_TOT=      8.4219261 <-- SPRD
 Delta: O_D= -0.1454996E-06 O_OD=  0.1433685E-06 O_TOT= -0.2131134E-08 <-- DLTA
 ------------------------------------------------------------------------------

             <<<     Delta < 1.000E-08  over  5 iterations     >>>
             <<< Wannierisation convergence criteria satisfied >>>

 Final State
  WF centre and spread    1  (  2.441960,  0.466217,  2.475175 )     4.21105566
  WF centre and spread    2  ( -0.817443,  2.348009, -0.127720 )     4.21087040
  Sum of centres and spreads (  1.624517,  2.814226,  2.347455 )     8.42192606
 
         Spreads (Ang^2)       Omega I      =     5.166811693
        ================       Omega D      =     2.944746328
                               Omega OD     =     0.310368034
    Final Spread (Ang^2)       Omega Total  =     8.421926056
 ------------------------------------------------------------------------------

 Wannier centres written to file wann_centres.xyz
 Time for wannierise            0.020 (sec)

 Writing checkpoint file wann.chk... done

 *---------------------------------------------------------------------------*
 |                               PLOTTING                                    |
 *---------------------------------------------------------------------------*
 
 
 Calculating interpolated band-structure
 
 Time to calculate interpolated band structure       0.006 (sec)
 
 Time for plotting              0.009 (sec)
 Total Execution Time           0.071 (sec)

 *===========================================================================*
 |                             TIMING INFORMATION                            |
 *===========================================================================*
 |    Tag                                                Ncalls      Time (s)|
 |---------------------------------------------------------------------------|
 |kmesh: get                                        :         1         0.008|
 |overlap: allocate                                 :         1         0.000|
 |overlap: read                                     :         1         0.027|
 |dis: main                                         :         1         0.002|
 |wann: main                                        :         1         0.020|
 |plot: main                                        :         1         0.009|
 *---------------------------------------------------------------------------*
 
 All done: wannier90 exiting
