 
             +---------------------------------------------------+
             |                                                   |
             |                   WANNIER90                       |
             |                                                   |
             +---------------------------------------------------+
             |                                                   |
             |        Welcome to the Maximally-Localized         |
             |        Generalized Wannier Functions code         |
             |            http://www.wannier.org                 |
             |                                                   |
             |                                                   |
             |  Wannier90 Developer Group:                       |
             |    Giovanni Pizzi    (EPFL)                       |
             |    Valerio Vitale    (Cambridge)                  |
             |    David Vanderbilt  (Rutgers University)         |
             |    Nicola Marzari    (EPFL)                       |
             |    Ivo Souza         (Universidad del Pais Vasco) |
             |    Arash A. Mostofi  (Imperial College London)    |
             |    Jonathan R. Yates (University of Oxford)       |
             |                                                   |
             |  For the full list of Wannier90 3.x authors,      |
             |  please check the code documentation and the      |
             |  README on the GitHub page of the code            |
             |                                                   |
             |                                                   |
             |  Please cite                                      |
             |                                                   |
             |  [ref] "Wannier90 as a community code:            |
             |        new features and applications",            |
             |        G. Pizzi et al., J. Phys. Cond. Matt. 32,  |
             |        165902 (2020).                             |
             |        http://doi.org/10.1088/1361-648X/ab51ff    |
             |                                                   |
             |  in any publications arising from the use of      |
             |  this code. For the method please cite            |
             |                                                   |
             |  [ref] "Maximally Localized Generalised Wannier   |
             |         Functions for Composite Energy Bands"     |
             |         N. Marzari and D. Vanderbilt              |
             |         Phys. Rev. B 56 12847 (1997)              |
             |                                                   |
             |  [ref] "Maximally Localized Wannier Functions     |
             |         for Entangled Energy Bands"               |
             |         I. Souza, N. Marzari and D. Vanderbilt    |
             |         Phys. Rev. B 65 035109 (2001)             |
             |                                                   |
             |                                                   |
             | Copyright (c) 1996-2020                           |
             |        The Wannier90 Developer Group and          |
             |        individual contributors                    |
             |                                                   |
             |      Release: 3.1.0        5th March    2020      |
             |                                                   |
             | This program is free software; you can            |
             | redistribute it and/or modify it under the terms  |
             | of the GNU General Public License as published by |
             | the Free Software Foundation; either version 2 of |
             | the License, or (at your option) any later version|
             |                                                   |
             | This program is distributed in the hope that it   |
             | will be useful, but WITHOUT ANY WARRANTY; without |
             | even the implied warranty of MERCHANTABILITY or   |
             | FITNESS FOR A PARTICULAR PURPOSE. See the GNU     |
             | General Public License for more details.          |
             |                                                   |
             | You should have received a copy of the GNU General|
             | Public License along with this program; if not,   |
             | write to the Free Software Foundation, Inc.,      |
             | 675 Mass Ave, Cambridge, MA 02139, USA.           |
             |                                                   |
             +---------------------------------------------------+
             |    Execution started on 12Dec2022 at 11:54:39     |
             +---------------------------------------------------+
 
 ******************************************************************************
 * -> Using CODATA 2006 constant values                                       *
 *    (http://physics.nist.gov/cuu/Constants/index.html)                      *
 * -> Using Bohr value from CODATA                                            *
 ******************************************************************************
 

 Running in serial (with serial executable)
 
                                    ------
                                    SYSTEM
                                    ------
 
                              Lattice Vectors (Ang)
                    a_1     3.249450   0.000000   0.000000
                    a_2    -1.624725   2.814106   0.000000
                    a_3     0.000000   0.000000   5.205748
 
                   Unit Cell Volume:      47.60290  (Ang^3)
 
                        Reciprocal-Space Vectors (Ang^-1)
                    b_1     1.933615   1.116373   0.000000
                    b_2     0.000000   2.232747   0.000000
                    b_3     0.000000   0.000000   1.206971
  
 *----------------------------------------------------------------------------*
 |   Site       Fractional Coordinate          Cartesian Coordinate (Ang)     |
 +----------------------------------------------------------------------------+
 | Zn   1   0.33330   0.66670   0.50000   |   -0.00016   1.87616   2.60287    |
 | Zn   2   0.66670   0.33330   0.00000   |    1.62489   0.93794   0.00000    |
 | O    1   0.33330   0.66670   0.11725   |   -0.00016   1.87616   0.61037    |
 | O    2   0.66670   0.33330   0.61725   |    1.62489   0.93794   3.21325    |
 *----------------------------------------------------------------------------*
                                ------------
                                K-POINT GRID
                                ------------
  
             Grid size =  2 x  2 x  2      Total points =    8
  
  
 *---------------------------------- MAIN ------------------------------------*
 |  Number of Wannier Functions               :                16             |
 |  Number of Objective Wannier Functions     :                16             |
 |  Number of input Bloch states              :                16             |
 |  Output verbosity (1=low, 5=high)          :                 1             |
 |  Timing Level (1=low, 5=high)              :                 1             |
 |  Optimisation (0=memory, 3=speed)          :                 3             |
 |  Length Unit                               :               Ang             |
 |  Post-processing setup (write *.nnkp)      :                 F             |
 |  Using Gamma-only branch of algorithms     :                 F             |
 *----------------------------------------------------------------------------*
 *------------------------------- WANNIERISE ---------------------------------*
 |  Total number of iterations                :             10000             |
 |  Number of CG steps before reset           :                 5             |
 |  Trial step length for line search         :             2.000             |
 |  Convergence tolerence                     :         0.100E-07             |
 |  Convergence window                        :                 5             |
 |  Iterations between writing output         :                 1             |
 |  Iterations between backing up to disk     :               100             |
 |  Write r^2_nm to file                      :                 F             |
 |  Write xyz WF centres to file              :                 T             |
 |  Write on-site energies <0n|H|0n> to file  :                 F             |
 |  Use guiding centre to control phases      :                 T             |
 |  Use phases for initial projections        :                 F             |
 |  Iterations before starting guiding centres:                 0             |
 |  Iterations between using guiding centres  :                 1             |
 *----------------------------------------------------------------------------*
 *-------------------------------- PLOTTING ----------------------------------*
 |  Plotting interpolated bandstructure       :                 T             |
 |   Number of K-path sections                :                 6             |
 |   Divisions along first K-path section     :               100             |
 |   Output format                            :           gnuplot             |
 |   Output mode                              :               s-k             |
 *----------------------------------------------------------------------------*
 |   K-space path sections:                                                   |
 |    From: A       0.000  0.000  0.500     To: L       0.500  0.000  0.500   |
 |    From: L       0.500  0.000  0.500     To: M       0.500  0.000  0.000   |
 |    From: M       0.500  0.000  0.000     To: G       0.000  0.000  0.000   |
 |    From: G       0.000  0.000  0.000     To: A       0.000  0.000  0.500   |
 |    From: A       0.000  0.000  0.500     To: H       0.333  0.333  0.500   |
 |    From: H       0.333  0.333  0.500     To: K       0.333  0.333  0.000   |
 *----------------------------------------------------------------------------*
 |  Plotting Hamiltonian in WF basis          :                 T             |
 *----------------------------------------------------------------------------*
 Time to read parameters        0.003 (sec)

 *---------------------------------- K-MESH ----------------------------------*
 +----------------------------------------------------------------------------+
 |                    Distance to Nearest-Neighbour Shells                    |
 |                    ------------------------------------                    |
 |          Shell             Distance (Ang^-1)          Multiplicity         |
 |          -----             -----------------          ------------         |
 |             1                   0.603485                      2            |
 |             2                   1.116373                      6            |
 |             3                   1.206971                      2            |
 |             4                   1.269048                     12            |
 |             5                   1.644101                     12            |
 |             6                   1.810456                      2            |
 |             7                   1.933615                      6            |
 |             8                   2.025602                     12            |
 |             9                   2.126979                     12            |
 |            10                   2.232747                      6            |
 |            11                   2.279396                     12            |
 |            12                   2.312867                     12            |
 |            13                   2.413941                      2            |
 |            14                   2.538097                     12            |
 |            15                   2.648890                     12            |
 |            16                   2.659587                     12            |
 |            17                   2.874527                     12            |
 |            18                   2.953646                     12            |
 |            19                   3.014667                     24            |
 |            20                   3.017427                      2            |
 |            21                   3.092892                     12            |
 |            22                   3.190737                     24            |
 |            23                   3.217321                     12            |
 |            24                   3.288202                     12            |
 |            25                   3.349120                      6            |
 |            26                   3.403057                     12            |
 |            27                   3.464358                     24            |
 |            28                   3.559969                     12            |
 |            29                   3.583815                     12            |
 |            30                   3.620912                      2            |
 |            31                   3.753668                     12            |
 |            32                   3.789102                     12            |
 |            33                   3.807145                     12            |
 |            34                   3.814595                     24            |
 |            35                   3.867230                      6            |
 |            36                   3.914034                     12            |
 +----------------------------------------------------------------------------+
 | The b-vectors are chosen automatically                                     |
 | The following shells are used:   1,  2                                     |
 +----------------------------------------------------------------------------+
 |                        Shell   # Nearest-Neighbours                        |
 |                        -----   --------------------                        |
 |                          1               2                                 |
 |                          2               6                                 |
 +----------------------------------------------------------------------------+
 | Completeness relation is fully satisfied [Eq. (B1), PRB 56, 12847 (1997)]  |
 +----------------------------------------------------------------------------+
 |                  b_k Vectors (Ang^-1) and Weights (Ang^2)                  |
 |                  ----------------------------------------                  |
 |            No.         b_k(x)      b_k(y)      b_k(z)        w_b           |
 |            ---        --------------------------------     --------        |
 |             1         0.000000    0.000000   -0.603485     1.372893        |
 |             2         0.000000    0.000000    0.603485     1.372893        |
 |             3         0.000000   -1.116373    0.000000     0.267461        |
 |             4        -0.966808   -0.558187    0.000000     0.267461        |
 |             5         0.966808    0.558187    0.000000     0.267461        |
 |             6         0.966808   -0.558187    0.000000     0.267461        |
 |             7         0.000000    1.116373    0.000000     0.267461        |
 |             8        -0.966808    0.558187    0.000000     0.267461        |
 +----------------------------------------------------------------------------+
 |                           b_k Directions (Ang^-1)                          |
 |                           -----------------------                          |
 |            No.           x           y           z                         |
 |            ---        --------------------------------                     |
 |             1         0.000000    0.000000   -0.603485                     |
 |             2         0.000000   -1.116373    0.000000                     |
 |             3        -0.966808   -0.558187    0.000000                     |
 |             4         0.966808   -0.558187    0.000000                     |
 +----------------------------------------------------------------------------+
  
 Time to get kmesh              0.010 (sec)
 *============================================================================*
 |                              MEMORY ESTIMATE                               |
 |         Maximum RAM allocated during each phase of the calculation         |
 *============================================================================*
 |                            Wannierise:            0.70 Mb                  |
 |                          plot_wannier:            0.70 Mb                  |
 *----------------------------------------------------------------------------*
  
 Starting a new Wannier90 calculation ...


 Reading overlaps from wann.mmn    :  Created on 12Dec2022 at 11:54:39

 Reading projections from wann.amn :  Created on 12Dec2022 at 11:54:39

 Time to read overlaps          0.017 (sec)

 Writing checkpoint file wann.chk... done

 
 *------------------------------- WANNIERISE ---------------------------------*
 +--------------------------------------------------------------------+<-- CONV
 | Iter  Delta Spread     RMS Gradient      Spread (Ang^2)      Time  |<-- CONV
 +--------------------------------------------------------------------+<-- CONV
 
 ------------------------------------------------------------------------------
 Initial State
  WF centre and spread    1  ( -0.000162,  1.876162,  2.621911 )     0.40169454
  WF centre and spread    2  ( -0.000163,  1.874946,  2.589989 )     0.37850952
  WF centre and spread    3  ( -0.000164,  1.877438,  2.590337 )     0.37915958
  WF centre and spread    4  ( -0.000159,  1.860276,  2.606884 )     0.37238270
  WF centre and spread    5  ( -0.000171,  1.891945,  2.606863 )     0.37231011
  WF centre and spread    6  (  1.624887,  0.937944,  0.019037 )     0.40169573
  WF centre and spread    7  (  1.624888,  0.939160, -0.012886 )     0.37851036
  WF centre and spread    8  (  1.624889,  0.936668, -0.012538 )     0.37916042
  WF centre and spread    9  (  1.624883,  0.953830,  0.004009 )     0.37238298
  WF centre and spread   10  (  1.624896,  0.922161,  0.003989 )     0.37231038
  WF centre and spread   11  ( -0.000169,  1.876218,  0.669408 )     0.99863398
  WF centre and spread   12  ( -0.000132,  1.834885,  0.576705 )     0.80299658
  WF centre and spread   13  ( -0.000171,  1.922453,  0.576898 )     0.80274859
  WF centre and spread   14  (  1.624893,  0.937888,  3.272287 )     0.99863513
  WF centre and spread   15  (  1.624857,  0.979221,  3.179580 )     0.80299694
  WF centre and spread   16  (  1.624896,  0.891653,  3.179773 )     0.80274895
  Sum of centres and spreads ( 12.997799, 22.512848, 24.472245 )     9.01687650
 
      0     0.902E+01     0.0000000000        9.0168765007       0.00  <-- CONV
        O_D=      0.0048252 O_OD=      0.6748109 O_TOT=      9.0168765 <-- SPRD
 ------------------------------------------------------------------------------
 Cycle:      1
  WF centre and spread    1  ( -0.000162,  1.876165,  2.625695 )     0.39268468
  WF centre and spread    2  ( -0.000162,  1.875948,  2.590725 )     0.36667783
  WF centre and spread    3  ( -0.000163,  1.876426,  2.590929 )     0.36684226
  WF centre and spread    4  ( -0.000158,  1.858153,  2.604497 )     0.35812693
  WF centre and spread    5  ( -0.000171,  1.894087,  2.604495 )     0.35811176
  WF centre and spread    6  (  1.624886,  0.937941,  0.022821 )     0.39268601
  WF centre and spread    7  (  1.624887,  0.938158, -0.012150 )     0.36667863
  WF centre and spread    8  (  1.624888,  0.937680, -0.011945 )     0.36684306
  WF centre and spread    9  (  1.624882,  0.955953,  0.001623 )     0.35812714
  WF centre and spread   10  (  1.624896,  0.920019,  0.001620 )     0.35811197
  WF centre and spread   11  ( -0.000167,  1.876148,  0.666655 )     0.96003669
  WF centre and spread   12  ( -0.000129,  1.836609,  0.579447 )     0.76992805
  WF centre and spread   13  ( -0.000170,  1.920638,  0.579491 )     0.76989890
  WF centre and spread   14  (  1.624892,  0.937958,  3.269534 )     0.96003797
  WF centre and spread   15  (  1.624854,  0.977498,  3.182322 )     0.76992846
  WF centre and spread   16  (  1.624895,  0.893468,  3.182366 )     0.76989931
  Sum of centres and spreads ( 12.997799, 22.512848, 24.478126 )     8.68461965
 
      1    -0.332E+00     0.7853910446        8.6846196506       0.02  <-- CONV
        O_D=      0.0039851 O_OD=      0.3433942 O_TOT=      8.6846197 <-- SPRD
 Delta: O_D= -0.8401506E-03 O_OD= -0.3314167E+00 O_TOT= -0.3322569E+00 <-- DLTA
 ------------------------------------------------------------------------------
 Cycle:      2
  WF centre and spread    1  ( -0.000161,  1.876163,  2.626447 )     0.39253562
  WF centre and spread    2  ( -0.000162,  1.876099,  2.589613 )     0.36497177
  WF centre and spread    3  ( -0.000163,  1.876249,  2.589726 )     0.36492499
  WF centre and spread    4  ( -0.000157,  1.857485,  2.604483 )     0.35657232
  WF centre and spread    5  ( -0.000171,  1.894772,  2.604484 )     0.35656595
  WF centre and spread    6  (  1.624886,  0.937943,  0.023572 )     0.39253704
  WF centre and spread    7  (  1.624887,  0.938007, -0.013262 )     0.36497260
  WF centre and spread    8  (  1.624888,  0.937857, -0.013149 )     0.36492582
  WF centre and spread    9  (  1.624882,  0.956621,  0.001609 )     0.35657251
  WF centre and spread   10  (  1.624896,  0.919334,  0.001610 )     0.35656614
  WF centre and spread   11  ( -0.000167,  1.876149,  0.667144 )     0.94996725
  WF centre and spread   12  ( -0.000127,  1.837073,  0.580706 )     0.76332403
  WF centre and spread   13  ( -0.000170,  1.920087,  0.580717 )     0.76322586
  WF centre and spread   14  (  1.624892,  0.937957,  3.270023 )     0.94996859
  WF centre and spread   15  (  1.624852,  0.977033,  3.183582 )     0.76332447
  WF centre and spread   16  (  1.624895,  0.894018,  3.183593 )     0.76322630
  Sum of centres and spreads ( 12.997799, 22.512848, 24.480897 )     8.62418127
 
      2    -0.604E-01     0.4345715349        8.6241812659       0.02  <-- CONV
        O_D=      0.0036946 O_OD=      0.2832463 O_TOT=      8.6241813 <-- SPRD
 Delta: O_D= -0.2905204E-03 O_OD= -0.6014786E-01 O_TOT= -0.6043838E-01 <-- DLTA
 ------------------------------------------------------------------------------
 Cycle:      3
  WF centre and spread    1  ( -0.000161,  1.876163,  2.626827 )     0.39245718
  WF centre and spread    2  ( -0.000162,  1.876104,  2.589422 )     0.36453259
  WF centre and spread    3  ( -0.000163,  1.876235,  2.589483 )     0.36448189
  WF centre and spread    4  ( -0.000157,  1.857271,  2.604594 )     0.35661765
  WF centre and spread    5  ( -0.000171,  1.894996,  2.604596 )     0.35661339
  WF centre and spread    6  (  1.624886,  0.937943,  0.023953 )     0.39245867
  WF centre and spread    7  (  1.624887,  0.938002, -0.013453 )     0.36453343
  WF centre and spread    8  (  1.624888,  0.937872, -0.013392 )     0.36448272
  WF centre and spread    9  (  1.624882,  0.956835,  0.001719 )     0.35661784
  WF centre and spread   10  (  1.624896,  0.919110,  0.001722 )     0.35661357
  WF centre and spread   11  ( -0.000167,  1.876144,  0.667659 )     0.94864223
  WF centre and spread   12  ( -0.000126,  1.837086,  0.580761 )     0.76213385
  WF centre and spread   13  ( -0.000170,  1.920066,  0.580775 )     0.76199872
  WF centre and spread   14  (  1.624892,  0.937962,  3.270538 )     0.94864359
  WF centre and spread   15  (  1.624851,  0.977021,  3.183636 )     0.76213429
  WF centre and spread   16  (  1.624895,  0.894040,  3.183650 )     0.76199915
  Sum of centres and spreads ( 12.997799, 22.512848, 24.482488 )     8.61496076
 
      3    -0.922E-02     0.1873941510        8.6149607565       0.03  <-- CONV
        O_D=      0.0036540 O_OD=      0.2740663 O_TOT=      8.6149608 <-- SPRD
 Delta: O_D= -0.4056442E-04 O_OD= -0.9179945E-02 O_TOT= -0.9220509E-02 <-- DLTA
 ------------------------------------------------------------------------------
 Cycle:      4
  WF centre and spread    1  ( -0.000161,  1.876163,  2.626929 )     0.39215288
  WF centre and spread    2  ( -0.000162,  1.876087,  2.589257 )     0.36431267
  WF centre and spread    3  ( -0.000163,  1.876247,  2.589276 )     0.36429186
  WF centre and spread    4  ( -0.000156,  1.857171,  2.604657 )     0.35673758
  WF centre and spread    5  ( -0.000172,  1.895105,  2.604659 )     0.35673402
  WF centre and spread    6  (  1.624886,  0.937943,  0.024055 )     0.39215438
  WF centre and spread    7  (  1.624887,  0.938019, -0.013618 )     0.36431351
  WF centre and spread    8  (  1.624888,  0.937859, -0.013599 )     0.36429269
  WF centre and spread    9  (  1.624881,  0.956935,  0.001782 )     0.35673777
  WF centre and spread   10  (  1.624896,  0.919001,  0.001785 )     0.35673421
  WF centre and spread   11  ( -0.000167,  1.876129,  0.667717 )     0.94896257
  WF centre and spread   12  ( -0.000126,  1.837045,  0.580654 )     0.76187727
  WF centre and spread   13  ( -0.000170,  1.920123,  0.580674 )     0.76174044
  WF centre and spread   14  (  1.624892,  0.937977,  3.270595 )     0.94896393
  WF centre and spread   15  (  1.624851,  0.977061,  3.183529 )     0.76187771
  WF centre and spread   16  (  1.624895,  0.893983,  3.183549 )     0.76174088
  Sum of centres and spreads ( 12.997799, 22.512848, 24.481900 )     8.61362436
 
      4    -0.134E-02     0.0621753408        8.6136243561       0.03  <-- CONV
        O_D=      0.0036591 O_OD=      0.2727249 O_TOT=      8.6136244 <-- SPRD
 Delta: O_D=  0.5076737E-05 O_OD= -0.1341477E-02 O_TOT= -0.1336400E-02 <-- DLTA
 ------------------------------------------------------------------------------
 Cycle:      5
  WF centre and spread    1  ( -0.000161,  1.876163,  2.626964 )     0.39190269
  WF centre and spread    2  ( -0.000162,  1.876075,  2.589130 )     0.36421811
  WF centre and spread    3  ( -0.000163,  1.876258,  2.589119 )     0.36422335
  WF centre and spread    4  ( -0.000156,  1.857116,  2.604703 )     0.35680887
  WF centre and spread    5  ( -0.000172,  1.895166,  2.604705 )     0.35680590
  WF centre and spread    6  (  1.624886,  0.937943,  0.024090 )     0.39190421
  WF centre and spread    7  (  1.624887,  0.938031, -0.013745 )     0.36421895
  WF centre and spread    8  (  1.624888,  0.937848, -0.013755 )     0.36422419
  WF centre and spread    9  (  1.624881,  0.956990,  0.001828 )     0.35680905
  WF centre and spread   10  (  1.624897,  0.918940,  0.001831 )     0.35680609
  WF centre and spread   11  ( -0.000167,  1.876116,  0.667649 )     0.94920241
  WF centre and spread   12  ( -0.000126,  1.837009,  0.580577 )     0.76177630
  WF centre and spread   13  ( -0.000170,  1.920177,  0.580602 )     0.76164069
  WF centre and spread   14  (  1.624892,  0.937990,  3.270528 )     0.94920376
  WF centre and spread   15  (  1.624851,  0.977097,  3.183453 )     0.76177674
  WF centre and spread   16  (  1.624895,  0.893929,  3.183477 )     0.76164114
  Sum of centres and spreads ( 12.997799, 22.512848, 24.481156 )     8.61316245
 
      5    -0.462E-03     0.0408774662        8.6131624464       0.03  <-- CONV
        O_D=      0.0036606 O_OD=      0.2722614 O_TOT=      8.6131624 <-- SPRD
 Delta: O_D=  0.1540690E-05 O_OD= -0.4634504E-03 O_TOT= -0.4619097E-03 <-- DLTA
 ------------------------------------------------------------------------------
 Cycle:      6
  WF centre and spread    1  ( -0.000161,  1.876163,  2.626975 )     0.39184912
  WF centre and spread    2  ( -0.000162,  1.876071,  2.589111 )     0.36421479
  WF centre and spread    3  ( -0.000163,  1.876261,  2.589092 )     0.36422771
  WF centre and spread    4  ( -0.000156,  1.857108,  2.604714 )     0.35681657
  WF centre and spread    5  ( -0.000172,  1.895176,  2.604717 )     0.35681369
  WF centre and spread    6  (  1.624886,  0.937943,  0.024101 )     0.39185064
  WF centre and spread    7  (  1.624887,  0.938035, -0.013763 )     0.36421563
  WF centre and spread    8  (  1.624888,  0.937846, -0.013783 )     0.36422855
  WF centre and spread    9  (  1.624881,  0.956998,  0.001840 )     0.35681676
  WF centre and spread   10  (  1.624897,  0.918930,  0.001843 )     0.35681388
  WF centre and spread   11  ( -0.000168,  1.876109,  0.667620 )     0.94927030
  WF centre and spread   12  ( -0.000126,  1.836996,  0.580563 )     0.76175046
  WF centre and spread   13  ( -0.000170,  1.920201,  0.580588 )     0.76161361
  WF centre and spread   14  (  1.624892,  0.937997,  3.270498 )     0.94927165
  WF centre and spread   15  (  1.624850,  0.977110,  3.183438 )     0.76175090
  WF centre and spread   16  (  1.624895,  0.893904,  3.183463 )     0.76161406
  Sum of centres and spreads ( 12.997799, 22.512848, 24.481018 )     8.61311833
 
      6    -0.441E-04     0.0135317355        8.6131183280       0.03  <-- CONV
        O_D=      0.0036645 O_OD=      0.2722134 O_TOT=      8.6131183 <-- SPRD
 Delta: O_D=  0.3848246E-05 O_OD= -0.4796668E-04 O_TOT= -0.4411844E-04 <-- DLTA
 ------------------------------------------------------------------------------
 Cycle:      7
  WF centre and spread    1  ( -0.000161,  1.876163,  2.626987 )     0.39181479
  WF centre and spread    2  ( -0.000162,  1.876070,  2.589109 )     0.36421898
  WF centre and spread    3  ( -0.000163,  1.876262,  2.589084 )     0.36423588
  WF centre and spread    4  ( -0.000156,  1.857103,  2.604719 )     0.35681683
  WF centre and spread    5  ( -0.000172,  1.895181,  2.604722 )     0.35681382
  WF centre and spread    6  (  1.624886,  0.937943,  0.024113 )     0.39181631
  WF centre and spread    7  (  1.624887,  0.938036, -0.013766 )     0.36421981
  WF centre and spread    8  (  1.624888,  0.937844, -0.013790 )     0.36423672
  WF centre and spread    9  (  1.624881,  0.957003,  0.001845 )     0.35681702
  WF centre and spread   10  (  1.624897,  0.918924,  0.001847 )     0.35681401
  WF centre and spread   11  ( -0.000168,  1.876100,  0.667614 )     0.94931925
  WF centre and spread   12  ( -0.000126,  1.836990,  0.580558 )     0.76173555
  WF centre and spread   13  ( -0.000170,  1.920220,  0.580585 )     0.76159685
  WF centre and spread   14  (  1.624892,  0.938006,  3.270493 )     0.94932060
  WF centre and spread   15  (  1.624850,  0.977117,  3.183433 )     0.76173600
  WF centre and spread   16  (  1.624895,  0.893885,  3.183460 )     0.76159730
  Sum of centres and spreads ( 12.997799, 22.512848, 24.481012 )     8.61310971
 
      7    -0.862E-05     0.0051109225        8.6131097087       0.03  <-- CONV
        O_D=      0.0036673 O_OD=      0.2722020 O_TOT=      8.6131097 <-- SPRD
 Delta: O_D=  0.2850130E-05 O_OD= -0.1146945E-04 O_TOT= -0.8619315E-05 <-- DLTA
 ------------------------------------------------------------------------------
 Cycle:      8
  WF centre and spread    1  ( -0.000161,  1.876162,  2.627004 )     0.39177690
  WF centre and spread    2  ( -0.000162,  1.876068,  2.589105 )     0.36422609
  WF centre and spread    3  ( -0.000163,  1.876264,  2.589073 )     0.36424876
  WF centre and spread    4  ( -0.000156,  1.857098,  2.604726 )     0.35681711
  WF centre and spread    5  ( -0.000172,  1.895188,  2.604728 )     0.35681383
  WF centre and spread    6  (  1.624886,  0.937943,  0.024130 )     0.39177842
  WF centre and spread    7  (  1.624887,  0.938038, -0.013770 )     0.36422692
  WF centre and spread    8  (  1.624888,  0.937842, -0.013802 )     0.36424960
  WF centre and spread    9  (  1.624881,  0.957008,  0.001852 )     0.35681730
  WF centre and spread   10  (  1.624897,  0.918918,  0.001854 )     0.35681402
  WF centre and spread   11  ( -0.000168,  1.876084,  0.667610 )     0.94937946
  WF centre and spread   12  ( -0.000125,  1.836980,  0.580549 )     0.76171427
  WF centre and spread   13  ( -0.000170,  1.920252,  0.580578 )     0.76157283
  WF centre and spread   14  (  1.624892,  0.938022,  3.270489 )     0.94938081
  WF centre and spread   15  (  1.624850,  0.977127,  3.183425 )     0.76171472
  WF centre and spread   16  (  1.624895,  0.893854,  3.183453 )     0.76157328
  Sum of centres and spreads ( 12.997799, 22.512848, 24.481005 )     8.61310433
 
      8    -0.538E-05     0.0036603780        8.6131043286       0.03  <-- CONV
        O_D=      0.0036703 O_OD=      0.2721936 O_TOT=      8.6131043 <-- SPRD
 Delta: O_D=  0.2984703E-05 O_OD= -0.8364801E-05 O_TOT= -0.5380098E-05 <-- DLTA
 ------------------------------------------------------------------------------
 Cycle:      9
  WF centre and spread    1  ( -0.000161,  1.876163,  2.627014 )     0.39176514
  WF centre and spread    2  ( -0.000162,  1.876068,  2.589102 )     0.36422795
  WF centre and spread    3  ( -0.000163,  1.876264,  2.589066 )     0.36425391
  WF centre and spread    4  ( -0.000156,  1.857094,  2.604729 )     0.35681841
  WF centre and spread    5  ( -0.000172,  1.895193,  2.604731 )     0.35681484
  WF centre and spread    6  (  1.624886,  0.937943,  0.024139 )     0.39176666
  WF centre and spread    7  (  1.624887,  0.938038, -0.013772 )     0.36422879
  WF centre and spread    8  (  1.624888,  0.937842, -0.013808 )     0.36425474
  WF centre and spread    9  (  1.624881,  0.957012,  0.001855 )     0.35681860
  WF centre and spread   10  (  1.624897,  0.918913,  0.001857 )     0.35681503
  WF centre and spread   11  ( -0.000168,  1.876066,  0.667616 )     0.94940273
  WF centre and spread   12  ( -0.000125,  1.836974,  0.580544 )     0.76170440
  WF centre and spread   13  ( -0.000170,  1.920280,  0.580574 )     0.76156068
  WF centre and spread   14  (  1.624893,  0.938040,  3.270495 )     0.94940408
  WF centre and spread   15  (  1.624850,  0.977132,  3.183419 )     0.76170484
  WF centre and spread   16  (  1.624895,  0.893825,  3.183449 )     0.76156112
  Sum of centres and spreads ( 12.997799, 22.512848, 24.481010 )     8.61310194
 
      9    -0.239E-05     0.0024164269        8.6131019352       0.03  <-- CONV
        O_D=      0.0036719 O_OD=      0.2721897 O_TOT=      8.6131019 <-- SPRD
 Delta: O_D=  0.1553175E-05 O_OD= -0.3946602E-05 O_TOT= -0.2393427E-05 <-- DLTA
 ------------------------------------------------------------------------------
 Cycle:     10
  WF centre and spread    1  ( -0.000161,  1.876164,  2.627033 )     0.39176623
  WF centre and spread    2  ( -0.000162,  1.876066,  2.589095 )     0.36422217
  WF centre and spread    3  ( -0.000163,  1.876266,  2.589052 )     0.36425473
  WF centre and spread    4  ( -0.000156,  1.857082,  2.604735 )     0.35682468
  WF centre and spread    5  ( -0.000172,  1.895204,  2.604737 )     0.35682005
  WF centre and spread    6  (  1.624886,  0.937942,  0.024159 )     0.39176775
  WF centre and spread    7  (  1.624887,  0.938040, -0.013779 )     0.36422301
  WF centre and spread    8  (  1.624888,  0.937840, -0.013823 )     0.36425557
  WF centre and spread    9  (  1.624881,  0.957024,  0.001861 )     0.35682487
  WF centre and spread   10  (  1.624897,  0.918902,  0.001862 )     0.35682024
  WF centre and spread   11  ( -0.000168,  1.875983,  0.667635 )     0.94942555
  WF centre and spread   12  ( -0.000124,  1.836963,  0.580529 )     0.76169186
  WF centre and spread   13  ( -0.000171,  1.920393,  0.580563 )     0.76153933
  WF centre and spread   14  (  1.624893,  0.938123,  3.270514 )     0.94942690
  WF centre and spread   15  (  1.624849,  0.977144,  3.183404 )     0.76169230
  WF centre and spread   16  (  1.624896,  0.893713,  3.183438 )     0.76153978
  Sum of centres and spreads ( 12.997799, 22.512848, 24.481016 )     8.61309503
 
     10    -0.690E-05     0.0023739811        8.6130950325       0.04  <-- CONV
        O_D=      0.0036751 O_OD=      0.2721795 O_TOT=      8.6130950 <-- SPRD
 Delta: O_D=  0.3239763E-05 O_OD= -0.1014239E-04 O_TOT= -0.6902628E-05 <-- DLTA
 ------------------------------------------------------------------------------
 Cycle:     11
  WF centre and spread    1  ( -0.000161,  1.876164,  2.627029 )     0.39177664
  WF centre and spread    2  ( -0.000162,  1.876067,  2.589098 )     0.36422250
  WF centre and spread    3  ( -0.000163,  1.876265,  2.589057 )     0.36425226
  WF centre and spread    4  ( -0.000156,  1.857086,  2.604733 )     0.35682296
  WF centre and spread    5  ( -0.000172,  1.895200,  2.604735 )     0.35681860
  WF centre and spread    6  (  1.624886,  0.937942,  0.024155 )     0.39177816
  WF centre and spread    7  (  1.624887,  0.938039, -0.013777 )     0.36422334
  WF centre and spread    8  (  1.624888,  0.937841, -0.013817 )     0.36425310
  WF centre and spread    9  (  1.624881,  0.957020,  0.001859 )     0.35682314
  WF centre and spread   10  (  1.624897,  0.918906,  0.001860 )     0.35681879
  WF centre and spread   11  ( -0.000168,  1.875977,  0.667622 )     0.94940445
  WF centre and spread   12  ( -0.000124,  1.836967,  0.580533 )     0.76169851
  WF centre and spread   13  ( -0.000171,  1.920394,  0.580566 )     0.76154622
  WF centre and spread   14  (  1.624893,  0.938129,  3.270500 )     0.94940581
  WF centre and spread   15  (  1.624849,  0.977139,  3.183409 )     0.76169896
  WF centre and spread   16  (  1.624896,  0.893711,  3.183441 )     0.76154667
  Sum of centres and spreads ( 12.997799, 22.512848, 24.481003 )     8.61309011
 
     11    -0.492E-05     0.0043307577        8.6130901139       0.04  <-- CONV
        O_D=      0.0036738 O_OD=      0.2721759 O_TOT=      8.6130901 <-- SPRD
 Delta: O_D= -0.1257811E-05 O_OD= -0.3660808E-05 O_TOT= -0.4918620E-05 <-- DLTA
 ------------------------------------------------------------------------------
 Cycle:     12
  WF centre and spread    1  ( -0.000161,  1.876165,  2.627015 )     0.39178948
  WF centre and spread    2  ( -0.000162,  1.876068,  2.589102 )     0.36422374
  WF centre and spread    3  ( -0.000163,  1.876264,  2.589066 )     0.36424878
  WF centre and spread    4  ( -0.000156,  1.857091,  2.604729 )     0.35682029
  WF centre and spread    5  ( -0.000172,  1.895193,  2.604731 )     0.35681642
  WF centre and spread    6  (  1.624886,  0.937941,  0.024141 )     0.39179100
  WF centre and spread    7  (  1.624887,  0.938038, -0.013773 )     0.36422458
  WF centre and spread    8  (  1.624888,  0.937843, -0.013808 )     0.36424962
  WF centre and spread    9  (  1.624881,  0.957015,  0.001855 )     0.35682048
  WF centre and spread   10  (  1.624897,  0.918913,  0.001857 )     0.35681661
  WF centre and spread   11  ( -0.000168,  1.875963,  0.667609 )     0.94937297
  WF centre and spread   12  ( -0.000124,  1.836975,  0.580542 )     0.76171014
  WF centre and spread   13  ( -0.000171,  1.920400,  0.580573 )     0.76155891
  WF centre and spread   14  (  1.624893,  0.938143,  3.270487 )     0.94937432
  WF centre and spread   15  (  1.624849,  0.977131,  3.183418 )     0.76171059
  WF centre and spread   16  (  1.624896,  0.893705,  3.183449 )     0.76155936
  Sum of centres and spreads ( 12.997799, 22.512848, 24.480993 )     8.61308729
 
     12    -0.283E-05     0.0025033398        8.6130872856       0.04  <-- CONV
        O_D=      0.0036723 O_OD=      0.2721745 O_TOT=      8.6130873 <-- SPRD
 Delta: O_D= -0.1511111E-05 O_OD= -0.1317234E-05 O_TOT= -0.2828344E-05 <-- DLTA
 ------------------------------------------------------------------------------
 Cycle:     13
  WF centre and spread    1  ( -0.000161,  1.876166,  2.626993 )     0.39180168
  WF centre and spread    2  ( -0.000162,  1.876070,  2.589107 )     0.36422555
  WF centre and spread    3  ( -0.000163,  1.876262,  2.589080 )     0.36424434
  WF centre and spread    4  ( -0.000156,  1.857099,  2.604723 )     0.35681677
  WF centre and spread    5  ( -0.000172,  1.895184,  2.604725 )     0.35681369
  WF centre and spread    6  (  1.624886,  0.937940,  0.024119 )     0.39180320
  WF centre and spread    7  (  1.624887,  0.938036, -0.013767 )     0.36422639
  WF centre and spread    8  (  1.624888,  0.937844, -0.013795 )     0.36424518
  WF centre and spread    9  (  1.624881,  0.957007,  0.001849 )     0.35681696
  WF centre and spread   10  (  1.624897,  0.918922,  0.001851 )     0.35681388
  WF centre and spread   11  ( -0.000168,  1.875931,  0.667607 )     0.94933803
  WF centre and spread   12  ( -0.000124,  1.836987,  0.580554 )     0.76172381
  WF centre and spread   13  ( -0.000171,  1.920424,  0.580583 )     0.76157514
  WF centre and spread   14  (  1.624893,  0.938175,  3.270485 )     0.94933938
  WF centre and spread   15  (  1.624849,  0.977119,  3.183430 )     0.76172426
  WF centre and spread   16  (  1.624896,  0.893682,  3.183459 )     0.76157559
  Sum of centres and spreads ( 12.997799, 22.512848, 24.481004 )     8.61308385
 
     13    -0.344E-05     0.0022552441        8.6130838471       0.04  <-- CONV
        O_D=      0.0036698 O_OD=      0.2721736 O_TOT=      8.6130838 <-- SPRD
 Delta: O_D= -0.2486787E-05 O_OD= -0.9516509E-06 O_TOT= -0.3438437E-05 <-- DLTA
 ------------------------------------------------------------------------------
 Cycle:     14
  WF centre and spread    1  ( -0.000161,  1.876168,  2.626980 )     0.39180426
  WF centre and spread    2  ( -0.000162,  1.876071,  2.589110 )     0.36422658
  WF centre and spread    3  ( -0.000163,  1.876261,  2.589088 )     0.36424209
  WF centre and spread    4  ( -0.000156,  1.857103,  2.604720 )     0.35681335
  WF centre and spread    5  ( -0.000172,  1.895178,  2.604722 )     0.35681098
  WF centre and spread    6  (  1.624886,  0.937938,  0.024106 )     0.39180578
  WF centre and spread    7  (  1.624887,  0.938035, -0.013764 )     0.36422742
  WF centre and spread    8  (  1.624888,  0.937845, -0.013787 )     0.36424292
  WF centre and spread    9  (  1.624881,  0.957003,  0.001845 )     0.35681354
  WF centre and spread   10  (  1.624897,  0.918928,  0.001848 )     0.35681117
  WF centre and spread   11  ( -0.000168,  1.875883,  0.667615 )     0.94932360
  WF centre and spread   12  ( -0.000123,  1.836993,  0.580562 )     0.76173165
  WF centre and spread   13  ( -0.000171,  1.920473,  0.580590 )     0.76158465
  WF centre and spread   14  (  1.624893,  0.938223,  3.270494 )     0.94932495
  WF centre and spread   15  (  1.624848,  0.977113,  3.183437 )     0.76173209
  WF centre and spread   16  (  1.624896,  0.893633,  3.183466 )     0.76158509
  Sum of centres and spreads ( 12.997799, 22.512848, 24.481033 )     8.61308013
 
     14    -0.371E-05     0.0025781637        8.6130801331       0.04  <-- CONV
        O_D=      0.0036680 O_OD=      0.2721718 O_TOT=      8.6130801 <-- SPRD
 Delta: O_D= -0.1879895E-05 O_OD= -0.1834149E-05 O_TOT= -0.3714045E-05 <-- DLTA
 ------------------------------------------------------------------------------
 Cycle:     15
  WF centre and spread    1  ( -0.000161,  1.876178,  2.626959 )     0.39173592
  WF centre and spread    2  ( -0.000162,  1.876072,  2.589106 )     0.36422375
  WF centre and spread    3  ( -0.000163,  1.876258,  2.589089 )     0.36423643
  WF centre and spread    4  ( -0.000156,  1.857105,  2.604716 )     0.35679874
  WF centre and spread    5  ( -0.000172,  1.895167,  2.604721 )     0.35679972
  WF centre and spread    6  (  1.624886,  0.937928,  0.024084 )     0.39173744
  WF centre and spread    7  (  1.624887,  0.938034, -0.013769 )     0.36422459
  WF centre and spread    8  (  1.624888,  0.937848, -0.013785 )     0.36423727
  WF centre and spread    9  (  1.624881,  0.957001,  0.001842 )     0.35679893
  WF centre and spread   10  (  1.624897,  0.918938,  0.001846 )     0.35679991
  WF centre and spread   11  ( -0.000170,  1.875485,  0.667641 )     0.94934783
  WF centre and spread   12  ( -0.000119,  1.836992,  0.580582 )     0.76175775
  WF centre and spread   13  ( -0.000173,  1.920939,  0.580617 )     0.76162351
  WF centre and spread   14  (  1.624894,  0.938621,  3.270519 )     0.94934918
  WF centre and spread   15  (  1.624844,  0.977115,  3.183458 )     0.76175819
  WF centre and spread   16  (  1.624898,  0.893167,  3.183493 )     0.76162396
  Sum of centres and spreads ( 12.997799, 22.512848, 24.481119 )     8.61305314
 
     15    -0.270E-04     0.0033961756        8.6130531359       0.04  <-- CONV
        O_D=      0.0036692 O_OD=      0.2721436 O_TOT=      8.6130531 <-- SPRD
 Delta: O_D=  0.1208538E-05 O_OD= -0.2820568E-04 O_TOT= -0.2699715E-04 <-- DLTA
 ------------------------------------------------------------------------------
 Cycle:     16
  WF centre and spread    1  ( -0.000161,  1.876177,  2.626972 )     0.39174595
  WF centre and spread    2  ( -0.000162,  1.876071,  2.589103 )     0.36422481
  WF centre and spread    3  ( -0.000163,  1.876259,  2.589081 )     0.36424031
  WF centre and spread    4  ( -0.000156,  1.857098,  2.604721 )     0.35680406
  WF centre and spread    5  ( -0.000172,  1.895175,  2.604725 )     0.35680407
  WF centre and spread    6  (  1.624886,  0.937929,  0.024098 )     0.39174747
  WF centre and spread    7  (  1.624887,  0.938035, -0.013771 )     0.36422565
  WF centre and spread    8  (  1.624888,  0.937847, -0.013793 )     0.36424114
  WF centre and spread    9  (  1.624881,  0.957008,  0.001847 )     0.35680425
  WF centre and spread   10  (  1.624897,  0.918931,  0.001851 )     0.35680425
  WF centre and spread   11  ( -0.000170,  1.875481,  0.667599 )     0.94935633
  WF centre and spread   12  ( -0.000119,  1.836988,  0.580569 )     0.76173997
  WF centre and spread   13  ( -0.000173,  1.920950,  0.580606 )     0.76160166
  WF centre and spread   14  (  1.624895,  0.938625,  3.270478 )     0.94935768
  WF centre and spread   15  (  1.624844,  0.977118,  3.183444 )     0.76174041
  WF centre and spread   16  (  1.624898,  0.893156,  3.183481 )     0.76160210
  Sum of centres and spreads ( 12.997799, 22.512848, 24.481010 )     8.61304011
 
     16    -0.130E-04     0.0067691555        8.6130401078       0.04  <-- CONV
        O_D=      0.0036723 O_OD=      0.2721274 O_TOT=      8.6130401 <-- SPRD
 Delta: O_D=  0.3145392E-05 O_OD= -0.1617352E-04 O_TOT= -0.1302813E-04 <-- DLTA
 ------------------------------------------------------------------------------
 Cycle:     17
  WF centre and spread    1  ( -0.000161,  1.876177,  2.626991 )     0.39176651
  WF centre and spread    2  ( -0.000162,  1.876071,  2.589101 )     0.36422604
  WF centre and spread    3  ( -0.000163,  1.876260,  2.589074 )     0.36424512
  WF centre and spread    4  ( -0.000156,  1.857091,  2.604726 )     0.35680953
  WF centre and spread    5  ( -0.000172,  1.895182,  2.604729 )     0.35680840
  WF centre and spread    6  (  1.624886,  0.937929,  0.024117 )     0.39176803
  WF centre and spread    7  (  1.624887,  0.938035, -0.013773 )     0.36422688
  WF centre and spread    8  (  1.624888,  0.937846, -0.013801 )     0.36424596
  WF centre and spread    9  (  1.624881,  0.957015,  0.001852 )     0.35680972
  WF centre and spread   10  (  1.624897,  0.918924,  0.001855 )     0.35680859
  WF centre and spread   11  ( -0.000170,  1.875476,  0.667589 )     0.94935540
  WF centre and spread   12  ( -0.000119,  1.836983,  0.580558 )     0.76172374
  WF centre and spread   13  ( -0.000173,  1.920964,  0.580598 )     0.76158045
  WF centre and spread   14  (  1.624895,  0.938630,  3.270468 )     0.94935675
  WF centre and spread   15  (  1.624844,  0.977124,  3.183433 )     0.76172419
  WF centre and spread   16  (  1.624898,  0.893141,  3.183474 )     0.76158089
  Sum of centres and spreads ( 12.997799, 22.512848, 24.480990 )     8.61303621
 
     17    -0.390E-05     0.0035074095        8.6130362069       0.05  <-- CONV
        O_D=      0.0036749 O_OD=      0.2721209 O_TOT=      8.6130362 <-- SPRD
 Delta: O_D=  0.2622892E-05 O_OD= -0.6523777E-05 O_TOT= -0.3900885E-05 <-- DLTA
 ------------------------------------------------------------------------------
 Cycle:     18
  WF centre and spread    1  ( -0.000161,  1.876177,  2.627005 )     0.39178369
  WF centre and spread    2  ( -0.000162,  1.876070,  2.589099 )     0.36422556
  WF centre and spread    3  ( -0.000163,  1.876261,  2.589067 )     0.36424816
  WF centre and spread    4  ( -0.000156,  1.857086,  2.604730 )     0.35681416
  WF centre and spread    5  ( -0.000172,  1.895188,  2.604733 )     0.35681200
  WF centre and spread    6  (  1.624886,  0.937929,  0.024131 )     0.39178521
  WF centre and spread    7  (  1.624887,  0.938036, -0.013775 )     0.36422640
  WF centre and spread    8  (  1.624888,  0.937845, -0.013807 )     0.36424900
  WF centre and spread    9  (  1.624881,  0.957020,  0.001855 )     0.35681435
  WF centre and spread   10  (  1.624897,  0.918918,  0.001858 )     0.35681219
  WF centre and spread   11  ( -0.000170,  1.875469,  0.667596 )     0.94934992
  WF centre and spread   12  ( -0.000119,  1.836978,  0.580549 )     0.76171456
  WF centre and spread   13  ( -0.000173,  1.920980,  0.580591 )     0.76156645
  WF centre and spread   14  (  1.624895,  0.938637,  3.270475 )     0.94935128
  WF centre and spread   15  (  1.624844,  0.977128,  3.183424 )     0.76171501
  WF centre and spread   16  (  1.624898,  0.893126,  3.183467 )     0.76156690
  Sum of centres and spreads ( 12.997799, 22.512848, 24.480996 )     8.61303483
 
     18    -0.137E-05     0.0018613827        8.6130348340       0.05  <-- CONV
        O_D=      0.0036752 O_OD=      0.2721192 O_TOT=      8.6130348 <-- SPRD
 Delta: O_D=  0.2607580E-06 O_OD= -0.1633665E-05 O_TOT= -0.1372907E-05 <-- DLTA
 ------------------------------------------------------------------------------
 Cycle:     19
  WF centre and spread    1  ( -0.000161,  1.876177,  2.627015 )     0.39179414
  WF centre and spread    2  ( -0.000162,  1.876070,  2.589098 )     0.36422482
  WF centre and spread    3  ( -0.000163,  1.876261,  2.589063 )     0.36425007
  WF centre and spread    4  ( -0.000156,  1.857080,  2.604732 )     0.35681841
  WF centre and spread    5  ( -0.000172,  1.895192,  2.604735 )     0.35681532
  WF centre and spread    6  (  1.624886,  0.937929,  0.024140 )     0.39179566
  WF centre and spread    7  (  1.624887,  0.938036, -0.013777 )     0.36422566
  WF centre and spread    8  (  1.624888,  0.937845, -0.013812 )     0.36425090
  WF centre and spread    9  (  1.624881,  0.957026,  0.001858 )     0.35681860
  WF centre and spread   10  (  1.624897,  0.918913,  0.001860 )     0.35681550
  WF centre and spread   11  ( -0.000170,  1.875459,  0.667605 )     0.94934482
  WF centre and spread   12  ( -0.000119,  1.836975,  0.580542 )     0.76170922
  WF centre and spread   13  ( -0.000174,  1.920996,  0.580586 )     0.76155731
  WF centre and spread   14  (  1.624895,  0.938647,  3.270484 )     0.94934618
  WF centre and spread   15  (  1.624844,  0.977131,  3.183417 )     0.76170967
  WF centre and spread   16  (  1.624898,  0.893110,  3.183462 )     0.76155776
  Sum of centres and spreads ( 12.997799, 22.512848, 24.481007 )     8.61303404
 
     19    -0.799E-06     0.0013229625        8.6130340352       0.05  <-- CONV
        O_D=      0.0036754 O_OD=      0.2721182 O_TOT=      8.6130340 <-- SPRD
 Delta: O_D=  0.1890621E-06 O_OD= -0.9878775E-06 O_TOT= -0.7988154E-06 <-- DLTA
 ------------------------------------------------------------------------------
 Cycle:     20
  WF centre and spread    1  ( -0.000161,  1.876178,  2.627023 )     0.39179907
  WF centre and spread    2  ( -0.000162,  1.876070,  2.589097 )     0.36422580
  WF centre and spread    3  ( -0.000163,  1.876261,  2.589060 )     0.36425293
  WF centre and spread    4  ( -0.000156,  1.857076,  2.604735 )     0.35682244
  WF centre and spread    5  ( -0.000172,  1.895197,  2.604736 )     0.35681834
  WF centre and spread    6  (  1.624886,  0.937928,  0.024149 )     0.39180059
  WF centre and spread    7  (  1.624887,  0.938036, -0.013777 )     0.36422663
  WF centre and spread    8  (  1.624888,  0.937845, -0.013815 )     0.36425376
  WF centre and spread    9  (  1.624881,  0.957030,  0.001860 )     0.35682263
  WF centre and spread   10  (  1.624897,  0.918909,  0.001862 )     0.35681853
  WF centre and spread   11  ( -0.000170,  1.875440,  0.667607 )     0.94934326
  WF centre and spread   12  ( -0.000119,  1.836972,  0.580537 )     0.76170337
  WF centre and spread   13  ( -0.000174,  1.921024,  0.580583 )     0.76154842
  WF centre and spread   14  (  1.624895,  0.938666,  3.270486 )     0.94934462
  WF centre and spread   15  (  1.624843,  0.977134,  3.183412 )     0.76170382
  WF centre and spread   16  (  1.624899,  0.893081,  3.183459 )     0.76154887
  Sum of centres and spreads ( 12.997799, 22.512848, 24.481014 )     8.61303306
 
     20    -0.978E-06     0.0012339364        8.6130330576       0.05  <-- CONV
        O_D=      0.0036765 O_OD=      0.2721161 O_TOT=      8.6130331 <-- SPRD
 Delta: O_D=  0.1112481E-05 O_OD= -0.2090094E-05 O_TOT= -0.9776128E-06 <-- DLTA
 ------------------------------------------------------------------------------
 Cycle:     21
  WF centre and spread    1  ( -0.000161,  1.876180,  2.627030 )     0.39179479
  WF centre and spread    2  ( -0.000162,  1.876070,  2.589097 )     0.36422879
  WF centre and spread    3  ( -0.000163,  1.876261,  2.589058 )     0.36425656
  WF centre and spread    4  ( -0.000156,  1.857071,  2.604736 )     0.35682602
  WF centre and spread    5  ( -0.000172,  1.895199,  2.604738 )     0.35682074
  WF centre and spread    6  (  1.624886,  0.937926,  0.024156 )     0.39179631
  WF centre and spread    7  (  1.624887,  0.938036, -0.013778 )     0.36422963
  WF centre and spread    8  (  1.624888,  0.937845, -0.013817 )     0.36425740
  WF centre and spread    9  (  1.624881,  0.957035,  0.001862 )     0.35682621
  WF centre and spread   10  (  1.624897,  0.918907,  0.001863 )     0.35682093
  WF centre and spread   11  ( -0.000170,  1.875378,  0.667586 )     0.94935128
  WF centre and spread   12  ( -0.000118,  1.836971,  0.580532 )     0.76169505
  WF centre and spread   13  ( -0.000174,  1.921100,  0.580582 )     0.76153916
  WF centre and spread   14  (  1.624895,  0.938728,  3.270465 )     0.94935264
  WF centre and spread   15  (  1.624842,  0.977135,  3.183407 )     0.76169550
  WF centre and spread   16  (  1.624899,  0.893006,  3.183457 )     0.76153961
  Sum of centres and spreads ( 12.997799, 22.512848, 24.480974 )     8.61303059
 
     21    -0.246E-05     0.0015691409        8.6130305944       0.05  <-- CONV
        O_D=      0.0036780 O_OD=      0.2721121 O_TOT=      8.6130306 <-- SPRD
 Delta: O_D=  0.1536898E-05 O_OD= -0.4000134E-05 O_TOT= -0.2463236E-05 <-- DLTA
 ------------------------------------------------------------------------------
 Cycle:     22
  WF centre and spread    1  ( -0.000161,  1.876180,  2.627023 )     0.39179553
  WF centre and spread    2  ( -0.000162,  1.876070,  2.589097 )     0.36422665
  WF centre and spread    3  ( -0.000163,  1.876261,  2.589059 )     0.36425337
  WF centre and spread    4  ( -0.000156,  1.857074,  2.604735 )     0.35682306
  WF centre and spread    5  ( -0.000172,  1.895196,  2.604737 )     0.35681850
  WF centre and spread    6  (  1.624886,  0.937926,  0.024149 )     0.39179706
  WF centre and spread    7  (  1.624887,  0.938035, -0.013778 )     0.36422748
  WF centre and spread    8  (  1.624888,  0.937845, -0.013815 )     0.36425421
  WF centre and spread    9  (  1.624881,  0.957032,  0.001861 )     0.35682325
  WF centre and spread   10  (  1.624897,  0.918910,  0.001863 )     0.35681869
  WF centre and spread   11  ( -0.000170,  1.875376,  0.667594 )     0.94934621
  WF centre and spread   12  ( -0.000118,  1.836973,  0.580536 )     0.76170067
  WF centre and spread   13  ( -0.000174,  1.921099,  0.580585 )     0.76154740
  WF centre and spread   14  (  1.624895,  0.938730,  3.270473 )     0.94934757
  WF centre and spread   15  (  1.624842,  0.977133,  3.183411 )     0.76170111
  WF centre and spread   16  (  1.624899,  0.893006,  3.183461 )     0.76154785
  Sum of centres and spreads ( 12.997799, 22.512848, 24.480991 )     8.61302862
 
     22    -0.197E-05     0.0027384162        8.6130286248       0.05  <-- CONV
        O_D=      0.0036774 O_OD=      0.2721108 O_TOT=      8.6130286 <-- SPRD
 Delta: O_D= -0.6466923E-06 O_OD= -0.1322898E-05 O_TOT= -0.1969590E-05 <-- DLTA
 ------------------------------------------------------------------------------
 Cycle:     23
  WF centre and spread    1  ( -0.000161,  1.876181,  2.627015 )     0.39179214
  WF centre and spread    2  ( -0.000162,  1.876071,  2.589097 )     0.36422565
  WF centre and spread    3  ( -0.000163,  1.876260,  2.589062 )     0.36425063
  WF centre and spread    4  ( -0.000156,  1.857077,  2.604733 )     0.35681875
  WF centre and spread    5  ( -0.000172,  1.895192,  2.604736 )     0.35681526
  WF centre and spread    6  (  1.624886,  0.937925,  0.024141 )     0.39179366
  WF centre and spread    7  (  1.624887,  0.938035, -0.013777 )     0.36422648
  WF centre and spread    8  (  1.624888,  0.937846, -0.013812 )     0.36425147
  WF centre and spread    9  (  1.624881,  0.957029,  0.001859 )     0.35681894
  WF centre and spread   10  (  1.624897,  0.918914,  0.001861 )     0.35681545
  WF centre and spread   11  ( -0.000170,  1.875370,  0.667599 )     0.94934106
  WF centre and spread   12  ( -0.000117,  1.836976,  0.580541 )     0.76170833
  WF centre and spread   13  ( -0.000174,  1.921101,  0.580589 )     0.76155914
  WF centre and spread   14  (  1.624895,  0.938735,  3.270478 )     0.94934242
  WF centre and spread   15  (  1.624842,  0.977130,  3.183416 )     0.76170878
  WF centre and spread   16  (  1.624899,  0.893005,  3.183465 )     0.76155959
  Sum of centres and spreads ( 12.997799, 22.512848, 24.481003 )     8.61302773
 
     23    -0.893E-06     0.0015345253        8.6130277319       0.05  <-- CONV
        O_D=      0.0036763 O_OD=      0.2721111 O_TOT=      8.6130277 <-- SPRD
 Delta: O_D= -0.1126654E-05 O_OD=  0.2337430E-06 O_TOT= -0.8929110E-06 <-- DLTA
 ------------------------------------------------------------------------------
 Cycle:     24
  WF centre and spread    1  ( -0.000161,  1.876182,  2.627007 )     0.39178536
  WF centre and spread    2  ( -0.000162,  1.876071,  2.589098 )     0.36422614
  WF centre and spread    3  ( -0.000163,  1.876260,  2.589065 )     0.36424917
  WF centre and spread    4  ( -0.000156,  1.857081,  2.604731 )     0.35681460
  WF centre and spread    5  ( -0.000172,  1.895188,  2.604734 )     0.35681218
  WF centre and spread    6  (  1.624886,  0.937924,  0.024133 )     0.39178688
  WF centre and spread    7  (  1.624887,  0.938035, -0.013777 )     0.36422698
  WF centre and spread    8  (  1.624888,  0.937846, -0.013809 )     0.36425001
  WF centre and spread    9  (  1.624881,  0.957025,  0.001857 )     0.35681479
  WF centre and spread   10  (  1.624897,  0.918918,  0.001860 )     0.35681237
  WF centre and spread   11  ( -0.000170,  1.875362,  0.667596 )     0.94933821
  WF centre and spread   12  ( -0.000117,  1.836978,  0.580547 )     0.76171486
  WF centre and spread   13  ( -0.000174,  1.921106,  0.580594 )     0.76157016
  WF centre and spread   14  (  1.624895,  0.938744,  3.270475 )     0.94933956
  WF centre and spread   15  (  1.624842,  0.977128,  3.183422 )     0.76171530
  WF centre and spread   16  (  1.624899,  0.893000,  3.183470 )     0.76157061
  Sum of centres and spreads ( 12.997799, 22.512848, 24.481005 )     8.61302717
 
     24    -0.562E-06     0.0010847277        8.6130271700       0.06  <-- CONV
        O_D=      0.0036755 O_OD=      0.2721112 O_TOT=      8.6130272 <-- SPRD
 Delta: O_D= -0.7319139E-06 O_OD=  0.1700899E-06 O_TOT= -0.5618240E-06 <-- DLTA
 ------------------------------------------------------------------------------
 Cycle:     25
  WF centre and spread    1  ( -0.000161,  1.876183,  2.626996 )     0.39177466
  WF centre and spread    2  ( -0.000162,  1.876071,  2.589098 )     0.36422620
  WF centre and spread    3  ( -0.000163,  1.876259,  2.589069 )     0.36424669
  WF centre and spread    4  ( -0.000156,  1.857084,  2.604729 )     0.35680993
  WF centre and spread    5  ( -0.000172,  1.895184,  2.604732 )     0.35680888
  WF centre and spread    6  (  1.624886,  0.937923,  0.024122 )     0.39177618
  WF centre and spread    7  (  1.624887,  0.938035, -0.013776 )     0.36422704
  WF centre and spread    8  (  1.624888,  0.937847, -0.013806 )     0.36424753
  WF centre and spread    9  (  1.624881,  0.957022,  0.001855 )     0.35681012
  WF centre and spread   10  (  1.624897,  0.918922,  0.001858 )     0.35680907
  WF centre and spread   11  ( -0.000170,  1.875342,  0.667588 )     0.94933901
  WF centre and spread   12  ( -0.000117,  1.836980,  0.580555 )     0.76172146
  WF centre and spread   13  ( -0.000175,  1.921125,  0.580602 )     0.76158344
  WF centre and spread   14  (  1.624895,  0.938764,  3.270467 )     0.94934036
  WF centre and spread   15  (  1.624842,  0.977126,  3.183430 )     0.76172191
  WF centre and spread   16  (  1.624900,  0.892981,  3.183477 )     0.76158389
  Sum of centres and spreads ( 12.997799, 22.512848, 24.480996 )     8.61302634
 
     25    -0.827E-06     0.0010388214        8.6130263429       0.06  <-- CONV
        O_D=      0.0036758 O_OD=      0.2721101 O_TOT=      8.6130263 <-- SPRD
 Delta: O_D=  0.2590895E-06 O_OD= -0.1086178E-05 O_TOT= -0.8270882E-06 <-- DLTA
 ------------------------------------------------------------------------------
 Cycle:     26
  WF centre and spread    1  ( -0.000161,  1.876186,  2.626986 )     0.39176586
  WF centre and spread    2  ( -0.000162,  1.876072,  2.589098 )     0.36422587
  WF centre and spread    3  ( -0.000163,  1.876258,  2.589072 )     0.36424433
  WF centre and spread    4  ( -0.000156,  1.857085,  2.604727 )     0.35680507
  WF centre and spread    5  ( -0.000172,  1.895180,  2.604731 )     0.35680555
  WF centre and spread    6  (  1.624886,  0.937920,  0.024112 )     0.39176738
  WF centre and spread    7  (  1.624887,  0.938034, -0.013776 )     0.36422670
  WF centre and spread    8  (  1.624888,  0.937848, -0.013803 )     0.36424517
  WF centre and spread    9  (  1.624881,  0.957021,  0.001852 )     0.35680526
  WF centre and spread   10  (  1.624897,  0.918926,  0.001857 )     0.35680574
  WF centre and spread   11  ( -0.000170,  1.875294,  0.667582 )     0.94933907
  WF centre and spread   12  ( -0.000116,  1.836981,  0.580562 )     0.76172642
  WF centre and spread   13  ( -0.000175,  1.921180,  0.580610 )     0.76159724
  WF centre and spread   14  (  1.624895,  0.938812,  3.270461 )     0.94934043
  WF centre and spread   15  (  1.624841,  0.977126,  3.183437 )     0.76172687
  WF centre and spread   16  (  1.624900,  0.892926,  3.183485 )     0.76159769
  Sum of centres and spreads ( 12.997799, 22.512848, 24.480991 )     8.61302466
 
     26    -0.169E-05     0.0014228986        8.6130246570       0.06  <-- CONV
        O_D=      0.0036759 O_OD=      0.2721084 O_TOT=      8.6130247 <-- SPRD
 Delta: O_D=  0.7937199E-07 O_OD= -0.1765312E-05 O_TOT= -0.1685940E-05 <-- DLTA
 ------------------------------------------------------------------------------
 Cycle:     27
  WF centre and spread    1  ( -0.000161,  1.876192,  2.626984 )     0.39176546
  WF centre and spread    2  ( -0.000162,  1.876072,  2.589096 )     0.36422663
  WF centre and spread    3  ( -0.000163,  1.876257,  2.589070 )     0.36424543
  WF centre and spread    4  ( -0.000156,  1.857080,  2.604727 )     0.35680266
  WF centre and spread    5  ( -0.000173,  1.895179,  2.604732 )     0.35680420
  WF centre and spread    6  (  1.624886,  0.937914,  0.024110 )     0.39176698
  WF centre and spread    7  (  1.624887,  0.938034, -0.013779 )     0.36422747
  WF centre and spread    8  (  1.624888,  0.937849, -0.013805 )     0.36424627
  WF centre and spread    9  (  1.624880,  0.957026,  0.001853 )     0.35680285
  WF centre and spread   10  (  1.624897,  0.918927,  0.001858 )     0.35680439
  WF centre and spread   11  ( -0.000171,  1.875173,  0.667590 )     0.94932490
  WF centre and spread   12  ( -0.000114,  1.836977,  0.580565 )     0.76172774
  WF centre and spread   13  ( -0.000177,  1.921324,  0.580620 )     0.76161043
  WF centre and spread   14  (  1.624896,  0.938933,  3.270469 )     0.94932626
  WF centre and spread   15  (  1.624838,  0.977129,  3.183440 )     0.76172818
  WF centre and spread   16  (  1.624901,  0.892782,  3.183495 )     0.76161088
  Sum of centres and spreads ( 12.997799, 22.512848, 24.481024 )     8.61302072
 
     27    -0.394E-05     0.0021534741        8.6130207154       0.06  <-- CONV
        O_D=      0.0036753 O_OD=      0.2721050 O_TOT=      8.6130207 <-- SPRD
 Delta: O_D= -0.5380745E-06 O_OD= -0.3403512E-05 O_TOT= -0.3941586E-05 <-- DLTA
 ------------------------------------------------------------------------------
 Cycle:     28
  WF centre and spread    1  ( -0.000161,  1.876192,  2.626990 )     0.39176773
  WF centre and spread    2  ( -0.000162,  1.876072,  2.589095 )     0.36422696
  WF centre and spread    3  ( -0.000163,  1.876257,  2.589067 )     0.36424690
  WF centre and spread    4  ( -0.000156,  1.857077,  2.604729 )     0.35680617
  WF centre and spread    5  ( -0.000173,  1.895182,  2.604734 )     0.35680665
  WF centre and spread    6  (  1.624886,  0.937914,  0.024115 )     0.39176925
  WF centre and spread    7  (  1.624887,  0.938034, -0.013779 )     0.36422780
  WF centre and spread    8  (  1.624888,  0.937849, -0.013807 )     0.36424774
  WF centre and spread    9  (  1.624880,  0.957029,  0.001855 )     0.35680636
  WF centre and spread   10  (  1.624897,  0.918924,  0.001859 )     0.35680684
  WF centre and spread   11  ( -0.000171,  1.875172,  0.667582 )     0.94932521
  WF centre and spread   12  ( -0.000114,  1.836978,  0.580559 )     0.76172383
  WF centre and spread   13  ( -0.000177,  1.921327,  0.580615 )     0.76160266
  WF centre and spread   14  (  1.624896,  0.938934,  3.270461 )     0.94932657
  WF centre and spread   15  (  1.624838,  0.977129,  3.183435 )     0.76172427
  WF centre and spread   16  (  1.624902,  0.892778,  3.183490 )     0.76160311
  Sum of centres and spreads ( 12.997799, 22.512848, 24.481002 )     8.61301803
 
     28    -0.268E-05     0.0031776935        8.6130180342       0.06  <-- CONV
        O_D=      0.0036765 O_OD=      0.2721011 O_TOT=      8.6130180 <-- SPRD
 Delta: O_D=  0.1171501E-05 O_OD= -0.3852711E-05 O_TOT= -0.2681210E-05 <-- DLTA
 ------------------------------------------------------------------------------
 Cycle:     29
  WF centre and spread    1  ( -0.000161,  1.876192,  2.627000 )     0.39177613
  WF centre and spread    2  ( -0.000162,  1.876072,  2.589095 )     0.36422776
  WF centre and spread    3  ( -0.000163,  1.876257,  2.589065 )     0.36424931
  WF centre and spread    4  ( -0.000156,  1.857074,  2.604732 )     0.35681013
  WF centre and spread    5  ( -0.000173,  1.895185,  2.604736 )     0.35680929
  WF centre and spread    6  (  1.624886,  0.937914,  0.024125 )     0.39177765
  WF centre and spread    7  (  1.624887,  0.938034, -0.013779 )     0.36422860
  WF centre and spread    8  (  1.624888,  0.937849, -0.013810 )     0.36425015
  WF centre and spread    9  (  1.624880,  0.957032,  0.001858 )     0.35681032
  WF centre and spread   10  (  1.624897,  0.918921,  0.001861 )     0.35680948
  WF centre and spread   11  ( -0.000171,  1.875169,  0.667580 )     0.94932282
  WF centre and spread   12  ( -0.000113,  1.836977,  0.580553 )     0.76171806
  WF centre and spread   13  ( -0.000177,  1.921333,  0.580610 )     0.76159215
  WF centre and spread   14  (  1.624896,  0.938937,  3.270459 )     0.94932417
  WF centre and spread   15  (  1.624838,  0.977129,  3.183428 )     0.76171851
  WF centre and spread   16  (  1.624902,  0.892773,  3.183485 )     0.76159259
  Sum of centres and spreads ( 12.997799, 22.512848, 24.480997 )     8.61301712
 
     29    -0.918E-06     0.0016569670        8.6130171160       0.06  <-- CONV
        O_D=      0.0036770 O_OD=      0.2720997 O_TOT=      8.6130171 <-- SPRD
 Delta: O_D=  0.4879454E-06 O_OD= -0.1406167E-05 O_TOT= -0.9182211E-06 <-- DLTA
 ------------------------------------------------------------------------------
 Cycle:     30
  WF centre and spread    1  ( -0.000161,  1.876192,  2.627007 )     0.39178379
  WF centre and spread    2  ( -0.000162,  1.876072,  2.589094 )     0.36422779
  WF centre and spread    3  ( -0.000163,  1.876257,  2.589062 )     0.36425079
  WF centre and spread    4  ( -0.000156,  1.857072,  2.604734 )     0.35681316
  WF centre and spread    5  ( -0.000173,  1.895187,  2.604737 )     0.35681124
  WF centre and spread    6  (  1.624886,  0.937914,  0.024133 )     0.39178531
  WF centre and spread    7  (  1.624887,  0.938034, -0.013780 )     0.36422862
  WF centre and spread    8  (  1.624888,  0.937849, -0.013812 )     0.36425162
  WF centre and spread    9  (  1.624880,  0.957034,  0.001860 )     0.35681334
  WF centre and spread   10  (  1.624897,  0.918919,  0.001863 )     0.35681143
  WF centre and spread   11  ( -0.000171,  1.875166,  0.667581 )     0.94932217
  WF centre and spread   12  ( -0.000113,  1.836977,  0.580547 )     0.76171307
  WF centre and spread   13  ( -0.000177,  1.921339,  0.580605 )     0.76158347
  WF centre and spread   14  (  1.624896,  0.938940,  3.270460 )     0.94932353
  WF centre and spread   15  (  1.624838,  0.977130,  3.183423 )     0.76171352
  WF centre and spread   16  (  1.624902,  0.892767,  3.183481 )     0.76158392
  Sum of centres and spreads ( 12.997799, 22.512848, 24.480995 )     8.61301676
 
     30    -0.352E-06     0.0009717271        8.6130167637       0.06  <-- CONV
        O_D=      0.0036772 O_OD=      0.2720992 O_TOT=      8.6130168 <-- SPRD
 Delta: O_D=  0.1962405E-06 O_OD= -0.5485538E-06 O_TOT= -0.3523132E-06 <-- DLTA
 ------------------------------------------------------------------------------
 Cycle:     31
  WF centre and spread    1  ( -0.000161,  1.876192,  2.627012 )     0.39178910
  WF centre and spread    2  ( -0.000162,  1.876072,  2.589094 )     0.36422725
  WF centre and spread    3  ( -0.000163,  1.876257,  2.589060 )     0.36425134
  WF centre and spread    4  ( -0.000156,  1.857069,  2.604735 )     0.35681567
  WF centre and spread    5  ( -0.000173,  1.895189,  2.604738 )     0.35681289
  WF centre and spread    6  (  1.624886,  0.937914,  0.024138 )     0.39179062
  WF centre and spread    7  (  1.624887,  0.938034, -0.013780 )     0.36422809
  WF centre and spread    8  (  1.624888,  0.937849, -0.013814 )     0.36425218
  WF centre and spread    9  (  1.624880,  0.957037,  0.001861 )     0.35681586
  WF centre and spread   10  (  1.624897,  0.918917,  0.001864 )     0.35681307
  WF centre and spread   11  ( -0.000171,  1.875161,  0.667583 )     0.94932209
  WF centre and spread   12  ( -0.000113,  1.836976,  0.580543 )     0.76170964
  WF centre and spread   13  ( -0.000177,  1.921347,  0.580602 )     0.76157739
  WF centre and spread   14  (  1.624896,  0.938945,  3.270461 )     0.94932345
  WF centre and spread   15  (  1.624838,  0.977130,  3.183418 )     0.76171009
  WF centre and spread   16  (  1.624902,  0.892759,  3.183478 )     0.76157784
  Sum of centres and spreads ( 12.997799, 22.512848, 24.480993 )     8.61301656
 
     31    -0.208E-06     0.0006531916        8.6130165561       0.07  <-- CONV
        O_D=      0.0036776 O_OD=      0.2720986 O_TOT=      8.6130166 <-- SPRD
 Delta: O_D=  0.3631196E-06 O_OD= -0.5707380E-06 O_TOT= -0.2076183E-06 <-- DLTA
 ------------------------------------------------------------------------------
 Cycle:     32
  WF centre and spread    1  ( -0.000161,  1.876193,  2.627017 )     0.39179310
  WF centre and spread    2  ( -0.000162,  1.876072,  2.589094 )     0.36422753
  WF centre and spread    3  ( -0.000163,  1.876257,  2.589059 )     0.36425254
  WF centre and spread    4  ( -0.000155,  1.857067,  2.604737 )     0.35681815
  WF centre and spread    5  ( -0.000173,  1.895191,  2.604739 )     0.35681447
  WF centre and spread    6  (  1.624886,  0.937913,  0.024143 )     0.39179462
  WF centre and spread    7  (  1.624887,  0.938034, -0.013781 )     0.36422837
  WF centre and spread    8  (  1.624888,  0.937849, -0.013815 )     0.36425338
  WF centre and spread    9  (  1.624880,  0.957039,  0.001863 )     0.35681834
  WF centre and spread   10  (  1.624898,  0.918915,  0.001865 )     0.35681466
  WF centre and spread   11  ( -0.000171,  1.875150,  0.667584 )     0.94932029
  WF centre and spread   12  ( -0.000113,  1.836976,  0.580540 )     0.76170679
  WF centre and spread   13  ( -0.000177,  1.921361,  0.580600 )     0.76157236
  WF centre and spread   14  (  1.624896,  0.938956,  3.270462 )     0.94932164
  WF centre and spread   15  (  1.624838,  0.977131,  3.183415 )     0.76170724
  WF centre and spread   16  (  1.624902,  0.892745,  3.183475 )     0.76157280
  Sum of centres and spreads ( 12.997799, 22.512848, 24.480996 )     8.61301627
 
     32    -0.287E-06     0.0006545852        8.6130162691       0.07  <-- CONV
        O_D=      0.0036780 O_OD=      0.2720979 O_TOT=      8.6130163 <-- SPRD
 Delta: O_D=  0.4394158E-06 O_OD= -0.7264077E-06 O_TOT= -0.2869919E-06 <-- DLTA
 ------------------------------------------------------------------------------
 Cycle:     33
  WF centre and spread    1  ( -0.000161,  1.876195,  2.627021 )     0.39179335
  WF centre and spread    2  ( -0.000162,  1.876073,  2.589094 )     0.36422889
  WF centre and spread    3  ( -0.000163,  1.876257,  2.589058 )     0.36425417
  WF centre and spread    4  ( -0.000155,  1.857065,  2.604738 )     0.35681941
  WF centre and spread    5  ( -0.000173,  1.895192,  2.604740 )     0.35681508
  WF centre and spread    6  (  1.624886,  0.937911,  0.024147 )     0.39179487
  WF centre and spread    7  (  1.624887,  0.938033, -0.013781 )     0.36422973
  WF centre and spread    8  (  1.624888,  0.937849, -0.013816 )     0.36425500
  WF centre and spread    9  (  1.624880,  0.957041,  0.001864 )     0.35681960
  WF centre and spread   10  (  1.624898,  0.918914,  0.001866 )     0.35681527
  WF centre and spread   11  ( -0.000171,  1.875126,  0.667579 )     0.94931774
  WF centre and spread   12  ( -0.000112,  1.836976,  0.580538 )     0.76170528
  WF centre and spread   13  ( -0.000178,  1.921391,  0.580600 )     0.76157103
  WF centre and spread   14  (  1.624896,  0.938980,  3.270458 )     0.94931910
  WF centre and spread   15  (  1.624837,  0.977131,  3.183413 )     0.76170573
  WF centre and spread   16  (  1.624903,  0.892715,  3.183475 )     0.76157147
  Sum of centres and spreads ( 12.997799, 22.512848, 24.480991 )     8.61301571
 
     33    -0.554E-06     0.0008496141        8.6130157147       0.07  <-- CONV
        O_D=      0.0036783 O_OD=      0.2720970 O_TOT=      8.6130157 <-- SPRD
 Delta: O_D=  0.3320222E-06 O_OD= -0.8864101E-06 O_TOT= -0.5543879E-06 <-- DLTA
 ------------------------------------------------------------------------------
 Cycle:     34
  WF centre and spread    1  ( -0.000161,  1.876195,  2.627017 )     0.39179243
  WF centre and spread    2  ( -0.000162,  1.876073,  2.589093 )     0.36422801
  WF centre and spread    3  ( -0.000163,  1.876257,  2.589059 )     0.36425276
  WF centre and spread    4  ( -0.000155,  1.857066,  2.604737 )     0.35681778
  WF centre and spread    5  ( -0.000173,  1.895191,  2.604739 )     0.35681401
  WF centre and spread    6  (  1.624886,  0.937911,  0.024143 )     0.39179395
  WF centre and spread    7  (  1.624887,  0.938033, -0.013781 )     0.36422885
  WF centre and spread    8  (  1.624888,  0.937849, -0.013816 )     0.36425360
  WF centre and spread    9  (  1.624880,  0.957040,  0.001863 )     0.35681797
  WF centre and spread   10  (  1.624898,  0.918915,  0.001865 )     0.35681420
  WF centre and spread   11  ( -0.000171,  1.875124,  0.667579 )     0.94931832
  WF centre and spread   12  ( -0.000112,  1.836976,  0.580540 )     0.76170679
  WF centre and spread   13  ( -0.000178,  1.921391,  0.580601 )     0.76157461
  WF centre and spread   14  (  1.624896,  0.938982,  3.270458 )     0.94931967
  WF centre and spread   15  (  1.624837,  0.977130,  3.183415 )     0.76170723
  WF centre and spread   16  (  1.624903,  0.892714,  3.183477 )     0.76157506
  Sum of centres and spreads ( 12.997799, 22.512848, 24.480991 )     8.61301523
 
     34    -0.482E-06     0.0013662104        8.6130152330       0.07  <-- CONV
        O_D=      0.0036782 O_OD=      0.2720966 O_TOT=      8.6130152 <-- SPRD
 Delta: O_D= -0.1256340E-06 O_OD= -0.3560241E-06 O_TOT= -0.4816581E-06 <-- DLTA
 ------------------------------------------------------------------------------
 Cycle:     35
  WF centre and spread    1  ( -0.000161,  1.876196,  2.627012 )     0.39178930
  WF centre and spread    2  ( -0.000162,  1.876073,  2.589093 )     0.36422772
  WF centre and spread    3  ( -0.000163,  1.876256,  2.589060 )     0.36425165
  WF centre and spread    4  ( -0.000155,  1.857067,  2.604736 )     0.35681534
  WF centre and spread    5  ( -0.000173,  1.895189,  2.604739 )     0.35681241
  WF centre and spread    6  (  1.624886,  0.937910,  0.024138 )     0.39179082
  WF centre and spread    7  (  1.624887,  0.938033, -0.013781 )     0.36422856
  WF centre and spread    8  (  1.624888,  0.937850, -0.013815 )     0.36425249
  WF centre and spread    9  (  1.624880,  0.957039,  0.001862 )     0.35681552
  WF centre and spread   10  (  1.624898,  0.918917,  0.001865 )     0.35681260
  WF centre and spread   11  ( -0.000171,  1.875122,  0.667580 )     0.94931824
  WF centre and spread   12  ( -0.000112,  1.836977,  0.580543 )     0.76170949
  WF centre and spread   13  ( -0.000178,  1.921392,  0.580604 )     0.76158044
  WF centre and spread   14  (  1.624896,  0.938984,  3.270458 )     0.94931960
  WF centre and spread   15  (  1.624837,  0.977130,  3.183418 )     0.76170994
  WF centre and spread   16  (  1.624903,  0.892713,  3.183480 )     0.76158088
  Sum of centres and spreads ( 12.997799, 22.512848, 24.480993 )     8.61301499
 
     35    -0.240E-06     0.0008167543        8.6130149929       0.07  <-- CONV
        O_D=      0.0036779 O_OD=      0.2720967 O_TOT=      8.6130150 <-- SPRD
 Delta: O_D= -0.3006510E-06 O_OD=  0.6052353E-07 O_TOT= -0.2401274E-06 <-- DLTA
 ------------------------------------------------------------------------------
 Cycle:     36
  WF centre and spread    1  ( -0.000161,  1.876196,  2.627008 )     0.39178480
  WF centre and spread    2  ( -0.000162,  1.876073,  2.589093 )     0.36422813
  WF centre and spread    3  ( -0.000163,  1.876256,  2.589061 )     0.36425122
  WF centre and spread    4  ( -0.000155,  1.857068,  2.604735 )     0.35681301
  WF centre and spread    5  ( -0.000173,  1.895187,  2.604738 )     0.35681092
  WF centre and spread    6  (  1.624886,  0.937910,  0.024134 )     0.39178632
  WF centre and spread    7  (  1.624887,  0.938033, -0.013781 )     0.36422896
  WF centre and spread    8  (  1.624888,  0.937850, -0.013814 )     0.36425205
  WF centre and spread    9  (  1.624880,  0.957038,  0.001861 )     0.35681320
  WF centre and spread   10  (  1.624898,  0.918919,  0.001864 )     0.35681111
  WF centre and spread   11  ( -0.000171,  1.875118,  0.667579 )     0.94931696
  WF centre and spread   12  ( -0.000112,  1.836977,  0.580546 )     0.76171267
  WF centre and spread   13  ( -0.000178,  1.921395,  0.580607 )     0.76158679
  WF centre and spread   14  (  1.624896,  0.938988,  3.270458 )     0.94931832
  WF centre and spread   15  (  1.624837,  0.977129,  3.183422 )     0.76171312
[...]
  WF centre and spread    5  ( -0.000187,  1.895153,  2.604802 )     0.35678059
  WF centre and spread    6  (  1.624881,  0.937681,  0.024110 )     0.39175172
  WF centre and spread    7  (  1.624889,  0.938000, -0.013847 )     0.36425979
  WF centre and spread    8  (  1.624888,  0.937871, -0.013842 )     0.36426544
  WF centre and spread    9  (  1.624869,  0.957283,  0.001910 )     0.35682710
  WF centre and spread   10  (  1.624912,  0.918953,  0.001928 )     0.35678077
  WF centre and spread   11  ( -0.000181,  1.874889,  0.667560 )     0.94928824
  WF centre and spread   12  (  0.000053,  1.836966,  0.580546 )     0.76171139
  WF centre and spread   13  ( -0.000298,  1.921666,  0.580624 )     0.76161374
  WF centre and spread   14  (  1.624906,  0.939217,  3.270439 )     0.94928960
  WF centre and spread   15  (  1.624672,  0.977140,  3.183422 )     0.76171184
  WF centre and spread   16  (  1.625023,  0.892440,  3.183500 )     0.76161418
  Sum of centres and spreads ( 12.997799, 22.512848, 24.480982 )     8.61299507
 
    421    -0.534E-08     0.0000880919        8.6129950723       0.53  <-- CONV
        O_D=      0.0036790 O_OD=      0.2720757 O_TOT=      8.6129951 <-- SPRD
 Delta: O_D=  0.1645523E-07 O_OD= -0.2179127E-07 O_TOT= -0.5336036E-08 <-- DLTA
 ------------------------------------------------------------------------------
 Cycle:    422
  WF centre and spread    1  ( -0.000156,  1.876425,  2.626983 )     0.39174990
  WF centre and spread    2  ( -0.000164,  1.876106,  2.589028 )     0.36425895
  WF centre and spread    3  ( -0.000163,  1.876235,  2.589032 )     0.36426454
  WF centre and spread    4  ( -0.000144,  1.856821,  2.604785 )     0.35682697
  WF centre and spread    5  ( -0.000187,  1.895153,  2.604803 )     0.35678046
  WF centre and spread    6  (  1.624881,  0.937681,  0.024109 )     0.39175142
  WF centre and spread    7  (  1.624889,  0.938000, -0.013847 )     0.36425979
  WF centre and spread    8  (  1.624888,  0.937871, -0.013842 )     0.36426539
  WF centre and spread    9  (  1.624869,  0.957285,  0.001910 )     0.35682716
  WF centre and spread   10  (  1.624912,  0.918953,  0.001928 )     0.35678065
  WF centre and spread   11  ( -0.000181,  1.874889,  0.667560 )     0.94928835
  WF centre and spread   12  (  0.000054,  1.836965,  0.580546 )     0.76171134
  WF centre and spread   13  ( -0.000299,  1.921666,  0.580625 )     0.76161410
  WF centre and spread   14  (  1.624906,  0.939217,  3.270439 )     0.94928971
  WF centre and spread   15  (  1.624671,  0.977141,  3.183422 )     0.76171179
  WF centre and spread   16  (  1.625024,  0.892440,  3.183500 )     0.76161454
  Sum of centres and spreads ( 12.997799, 22.512848, 24.480982 )     8.61299506
 
    422    -0.123E-07     0.0001159516        8.6129950600       0.53  <-- CONV
        O_D=      0.0036790 O_OD=      0.2720756 O_TOT=      8.6129951 <-- SPRD
 Delta: O_D=  0.2886989E-07 O_OD= -0.4115167E-07 O_TOT= -0.1228178E-07 <-- DLTA
 ------------------------------------------------------------------------------
 Cycle:    423
  WF centre and spread    1  ( -0.000156,  1.876426,  2.626983 )     0.39174947
  WF centre and spread    2  ( -0.000164,  1.876106,  2.589028 )     0.36425906
  WF centre and spread    3  ( -0.000163,  1.876236,  2.589033 )     0.36426441
  WF centre and spread    4  ( -0.000144,  1.856819,  2.604785 )     0.35682739
  WF centre and spread    5  ( -0.000187,  1.895152,  2.604803 )     0.35678023
  WF centre and spread    6  (  1.624881,  0.937680,  0.024109 )     0.39175099
  WF centre and spread    7  (  1.624889,  0.938000, -0.013847 )     0.36425990
  WF centre and spread    8  (  1.624888,  0.937870, -0.013842 )     0.36426526
  WF centre and spread    9  (  1.624869,  0.957287,  0.001910 )     0.35682757
  WF centre and spread   10  (  1.624912,  0.918954,  0.001929 )     0.35678042
  WF centre and spread   11  ( -0.000181,  1.874889,  0.667561 )     0.94928842
  WF centre and spread   12  (  0.000056,  1.836964,  0.580546 )     0.76171130
  WF centre and spread   13  ( -0.000300,  1.921666,  0.580625 )     0.76161432
  WF centre and spread   14  (  1.624906,  0.939217,  3.270439 )     0.94928978
  WF centre and spread   15  (  1.624669,  0.977142,  3.183422 )     0.76171175
  WF centre and spread   16  (  1.625025,  0.892440,  3.183500 )     0.76161477
  Sum of centres and spreads ( 12.997799, 22.512848, 24.480983 )     8.61299503
 
    423    -0.291E-07     0.0001922063        8.6129950309       0.53  <-- CONV
        O_D=      0.0036791 O_OD=      0.2720755 O_TOT=      8.6129950 <-- SPRD
 Delta: O_D=  0.5559102E-07 O_OD= -0.8467623E-07 O_TOT= -0.2908521E-07 <-- DLTA
 ------------------------------------------------------------------------------
 Cycle:    424
  WF centre and spread    1  ( -0.000156,  1.876426,  2.626983 )     0.39174944
  WF centre and spread    2  ( -0.000164,  1.876106,  2.589027 )     0.36425911
  WF centre and spread    3  ( -0.000163,  1.876236,  2.589033 )     0.36426442
  WF centre and spread    4  ( -0.000144,  1.856820,  2.604785 )     0.35682753
  WF centre and spread    5  ( -0.000187,  1.895152,  2.604803 )     0.35678030
  WF centre and spread    6  (  1.624881,  0.937680,  0.024109 )     0.39175096
  WF centre and spread    7  (  1.624889,  0.938000, -0.013847 )     0.36425995
  WF centre and spread    8  (  1.624888,  0.937870, -0.013842 )     0.36426526
  WF centre and spread    9  (  1.624869,  0.957287,  0.001910 )     0.35682771
  WF centre and spread   10  (  1.624912,  0.918953,  0.001929 )     0.35678048
  WF centre and spread   11  ( -0.000181,  1.874889,  0.667560 )     0.94928833
  WF centre and spread   12  (  0.000056,  1.836965,  0.580546 )     0.76171135
  WF centre and spread   13  ( -0.000301,  1.921666,  0.580625 )     0.76161411
  WF centre and spread   14  (  1.624906,  0.939217,  3.270439 )     0.94928969
  WF centre and spread   15  (  1.624669,  0.977141,  3.183422 )     0.76171180
  WF centre and spread   16  (  1.625025,  0.892440,  3.183500 )     0.76161455
  Sum of centres and spreads ( 12.997799, 22.512848, 24.480982 )     8.61299500
 
    424    -0.286E-07     0.0003398523        8.6129950023       0.53  <-- CONV
        O_D=      0.0036790 O_OD=      0.2720756 O_TOT=      8.6129950 <-- SPRD
 Delta: O_D= -0.5996716E-07 O_OD=  0.3138338E-07 O_TOT= -0.2858379E-07 <-- DLTA
 ------------------------------------------------------------------------------
 Cycle:    425
  WF centre and spread    1  ( -0.000156,  1.876426,  2.626983 )     0.39174955
  WF centre and spread    2  ( -0.000164,  1.876106,  2.589027 )     0.36425918
  WF centre and spread    3  ( -0.000163,  1.876236,  2.589033 )     0.36426443
  WF centre and spread    4  ( -0.000144,  1.856820,  2.604785 )     0.35682770
  WF centre and spread    5  ( -0.000188,  1.895152,  2.604803 )     0.35678035
  WF centre and spread    6  (  1.624881,  0.937680,  0.024109 )     0.39175107
  WF centre and spread    7  (  1.624889,  0.938000, -0.013847 )     0.36426002
  WF centre and spread    8  (  1.624888,  0.937870, -0.013842 )     0.36426527
  WF centre and spread    9  (  1.624869,  0.957286,  0.001910 )     0.35682788
  WF centre and spread   10  (  1.624912,  0.918953,  0.001929 )     0.35678053
  WF centre and spread   11  ( -0.000181,  1.874889,  0.667560 )     0.94928822
  WF centre and spread   12  (  0.000056,  1.836966,  0.580546 )     0.76171140
  WF centre and spread   13  ( -0.000301,  1.921666,  0.580624 )     0.76161375
  WF centre and spread   14  (  1.624906,  0.939217,  3.270439 )     0.94928958
  WF centre and spread   15  (  1.624669,  0.977140,  3.183422 )     0.76171185
  WF centre and spread   16  (  1.625026,  0.892440,  3.183500 )     0.76161419
  Sum of centres and spreads ( 12.997799, 22.512848, 24.480982 )     8.61299499
 
    425    -0.119E-07     0.0001893901        8.6129949904       0.53  <-- CONV
        O_D=      0.0036790 O_OD=      0.2720756 O_TOT=      8.6129950 <-- SPRD
 Delta: O_D= -0.3130361E-07 O_OD=  0.1941160E-07 O_TOT= -0.1189201E-07 <-- DLTA
 ------------------------------------------------------------------------------
 Cycle:    426
  WF centre and spread    1  ( -0.000156,  1.876426,  2.626983 )     0.39174972
  WF centre and spread    2  ( -0.000164,  1.876106,  2.589027 )     0.36425919
  WF centre and spread    3  ( -0.000163,  1.876236,  2.589033 )     0.36426438
  WF centre and spread    4  ( -0.000144,  1.856821,  2.604785 )     0.35682784
  WF centre and spread    5  ( -0.000188,  1.895153,  2.604803 )     0.35678038
  WF centre and spread    6  (  1.624881,  0.937680,  0.024109 )     0.39175124
  WF centre and spread    7  (  1.624889,  0.938000, -0.013847 )     0.36426004
  WF centre and spread    8  (  1.624888,  0.937870, -0.013842 )     0.36426522
  WF centre and spread    9  (  1.624869,  0.957285,  0.001911 )     0.35682803
  WF centre and spread   10  (  1.624913,  0.918953,  0.001929 )     0.35678056
  WF centre and spread   11  ( -0.000181,  1.874889,  0.667560 )     0.94928819
  WF centre and spread   12  (  0.000056,  1.836967,  0.580546 )     0.76171145
  WF centre and spread   13  ( -0.000301,  1.921666,  0.580624 )     0.76161343
  WF centre and spread   14  (  1.624906,  0.939217,  3.270439 )     0.94928955
  WF centre and spread   15  (  1.624669,  0.977139,  3.183422 )     0.76171190
  WF centre and spread   16  (  1.625026,  0.892440,  3.183499 )     0.76161388
  Sum of centres and spreads ( 12.997799, 22.512848, 24.480983 )     8.61299499
 
    426    -0.513E-08     0.0001139523        8.6129949853       0.53  <-- CONV
        O_D=      0.0036790 O_OD=      0.2720756 O_TOT=      8.6129950 <-- SPRD
 Delta: O_D= -0.1863508E-07 O_OD=  0.1350107E-07 O_TOT= -0.5134012E-08 <-- DLTA
 ------------------------------------------------------------------------------
 Cycle:    427
  WF centre and spread    1  ( -0.000156,  1.876426,  2.626983 )     0.39174976
  WF centre and spread    2  ( -0.000164,  1.876106,  2.589027 )     0.36425917
  WF centre and spread    3  ( -0.000163,  1.876236,  2.589033 )     0.36426429
  WF centre and spread    4  ( -0.000144,  1.856822,  2.604785 )     0.35682799
  WF centre and spread    5  ( -0.000188,  1.895153,  2.604803 )     0.35678040
  WF centre and spread    6  (  1.624881,  0.937680,  0.024109 )     0.39175128
  WF centre and spread    7  (  1.624889,  0.938000, -0.013847 )     0.36426001
  WF centre and spread    8  (  1.624888,  0.937870, -0.013842 )     0.36426514
  WF centre and spread    9  (  1.624869,  0.957284,  0.001911 )     0.35682818
  WF centre and spread   10  (  1.624913,  0.918953,  0.001929 )     0.35678059
  WF centre and spread   11  ( -0.000181,  1.874889,  0.667560 )     0.94928825
  WF centre and spread   12  (  0.000056,  1.836968,  0.580546 )     0.76171151
  WF centre and spread   13  ( -0.000301,  1.921666,  0.580624 )     0.76161320
  WF centre and spread   14  (  1.624906,  0.939216,  3.270439 )     0.94928960
  WF centre and spread   15  (  1.624669,  0.977138,  3.183422 )     0.76171196
  WF centre and spread   16  (  1.625026,  0.892440,  3.183499 )     0.76161365
  Sum of centres and spreads ( 12.997799, 22.512848, 24.480982 )     8.61299498
 
    427    -0.364E-08     0.0000860607        8.6129949817       0.53  <-- CONV
        O_D=      0.0036789 O_OD=      0.2720756 O_TOT=      8.6129950 <-- SPRD
 Delta: O_D= -0.4157242E-07 O_OD=  0.3793512E-07 O_TOT= -0.3637304E-08 <-- DLTA
 ------------------------------------------------------------------------------
 Cycle:    428
  WF centre and spread    1  ( -0.000156,  1.876426,  2.626983 )     0.39174959
  WF centre and spread    2  ( -0.000164,  1.876106,  2.589027 )     0.36425920
  WF centre and spread    3  ( -0.000163,  1.876236,  2.589033 )     0.36426424
  WF centre and spread    4  ( -0.000144,  1.856822,  2.604785 )     0.35682821
  WF centre and spread    5  ( -0.000188,  1.895153,  2.604803 )     0.35678042
  WF centre and spread    6  (  1.624881,  0.937680,  0.024109 )     0.39175111
  WF centre and spread    7  (  1.624889,  0.938000, -0.013847 )     0.36426004
  WF centre and spread    8  (  1.624888,  0.937870, -0.013841 )     0.36426508
  WF centre and spread    9  (  1.624869,  0.957284,  0.001911 )     0.35682839
  WF centre and spread   10  (  1.624913,  0.918953,  0.001929 )     0.35678061
  WF centre and spread   11  ( -0.000181,  1.874889,  0.667560 )     0.94928834
  WF centre and spread   12  (  0.000057,  1.836969,  0.580546 )     0.76171159
  WF centre and spread   13  ( -0.000302,  1.921666,  0.580623 )     0.76161300
  WF centre and spread   14  (  1.624906,  0.939216,  3.270439 )     0.94928969
  WF centre and spread   15  (  1.624668,  0.977137,  3.183422 )     0.76171204
  WF centre and spread   16  (  1.625027,  0.892440,  3.183499 )     0.76161344
  Sum of centres and spreads ( 12.997799, 22.512848, 24.480982 )     8.61299498
 
    428    -0.558E-08     0.0000873703        8.6129949761       0.54  <-- CONV
        O_D=      0.0036789 O_OD=      0.2720756 O_TOT=      8.6129950 <-- SPRD
 Delta: O_D= -0.1218199E-07 O_OD=  0.6605454E-08 O_TOT= -0.5576540E-08 <-- DLTA
 ------------------------------------------------------------------------------
 Cycle:    429
  WF centre and spread    1  ( -0.000156,  1.876427,  2.626983 )     0.39174933
  WF centre and spread    2  ( -0.000164,  1.876106,  2.589027 )     0.36425928
  WF centre and spread    3  ( -0.000163,  1.876236,  2.589033 )     0.36426420
  WF centre and spread    4  ( -0.000144,  1.856822,  2.604785 )     0.35682846
  WF centre and spread    5  ( -0.000188,  1.895153,  2.604803 )     0.35678040
  WF centre and spread    6  (  1.624881,  0.937679,  0.024109 )     0.39175085
  WF centre and spread    7  (  1.624889,  0.937999, -0.013847 )     0.36426012
  WF centre and spread    8  (  1.624888,  0.937870, -0.013841 )     0.36426504
  WF centre and spread    9  (  1.624869,  0.957284,  0.001911 )     0.35682865
  WF centre and spread   10  (  1.624913,  0.918953,  0.001929 )     0.35678058
  WF centre and spread   11  ( -0.000181,  1.874889,  0.667561 )     0.94928838
  WF centre and spread   12  (  0.000057,  1.836970,  0.580546 )     0.76171163
  WF centre and spread   13  ( -0.000303,  1.921666,  0.580623 )     0.76161289
  WF centre and spread   14  (  1.624906,  0.939216,  3.270439 )     0.94928974
  WF centre and spread   15  (  1.624668,  0.977137,  3.183422 )     0.76171208
  WF centre and spread   16  (  1.625027,  0.892440,  3.183499 )     0.76161334
  Sum of centres and spreads ( 12.997799, 22.512848, 24.480983 )     8.61299497
 
    429    -0.974E-08     0.0001226242        8.6129949664       0.54  <-- CONV
        O_D=      0.0036789 O_OD=      0.2720756 O_TOT=      8.6129950 <-- SPRD
 Delta: O_D=  0.1439886E-07 O_OD= -0.2413554E-07 O_TOT= -0.9736679E-08 <-- DLTA
 ------------------------------------------------------------------------------
 Cycle:    430
  WF centre and spread    1  ( -0.000156,  1.876427,  2.626983 )     0.39174943
  WF centre and spread    2  ( -0.000164,  1.876106,  2.589027 )     0.36425925
  WF centre and spread    3  ( -0.000163,  1.876236,  2.589033 )     0.36426419
  WF centre and spread    4  ( -0.000144,  1.856822,  2.604785 )     0.35682840
  WF centre and spread    5  ( -0.000188,  1.895152,  2.604803 )     0.35678037
  WF centre and spread    6  (  1.624881,  0.937679,  0.024109 )     0.39175095
  WF centre and spread    7  (  1.624889,  0.937999, -0.013847 )     0.36426009
  WF centre and spread    8  (  1.624888,  0.937870, -0.013841 )     0.36426503
  WF centre and spread    9  (  1.624869,  0.957284,  0.001911 )     0.35682858
  WF centre and spread   10  (  1.624913,  0.918953,  0.001929 )     0.35678055
  WF centre and spread   11  ( -0.000181,  1.874889,  0.667560 )     0.94928833
  WF centre and spread   12  (  0.000057,  1.836969,  0.580546 )     0.76171160
  WF centre and spread   13  ( -0.000302,  1.921666,  0.580623 )     0.76161301
  WF centre and spread   14  (  1.624906,  0.939216,  3.270439 )     0.94928969
  WF centre and spread   15  (  1.624668,  0.977137,  3.183422 )     0.76171204
  WF centre and spread   16  (  1.625027,  0.892440,  3.183499 )     0.76161345
  Sum of centres and spreads ( 12.997799, 22.512848, 24.480982 )     8.61299496
 
    430    -0.966E-08     0.0002042754        8.6129949567       0.54  <-- CONV
        O_D=      0.0036789 O_OD=      0.2720756 O_TOT=      8.6129950 <-- SPRD
 Delta: O_D= -0.1799679E-07 O_OD=  0.8337907E-08 O_TOT= -0.9658885E-08 <-- DLTA
 ------------------------------------------------------------------------------

             <<<     Delta < 1.000E-08  over  5 iterations     >>>
             <<< Wannierisation convergence criteria satisfied >>>

 Final State
  WF centre and spread    1  ( -0.000156,  1.876427,  2.626983 )     0.39174943
  WF centre and spread    2  ( -0.000164,  1.876106,  2.589027 )     0.36425925
  WF centre and spread    3  ( -0.000163,  1.876236,  2.589033 )     0.36426419
  WF centre and spread    4  ( -0.000144,  1.856822,  2.604785 )     0.35682840
  WF centre and spread    5  ( -0.000188,  1.895152,  2.604803 )     0.35678037
  WF centre and spread    6  (  1.624881,  0.937679,  0.024109 )     0.39175095
  WF centre and spread    7  (  1.624889,  0.937999, -0.013847 )     0.36426009
  WF centre and spread    8  (  1.624888,  0.937870, -0.013841 )     0.36426503
  WF centre and spread    9  (  1.624869,  0.957284,  0.001911 )     0.35682858
  WF centre and spread   10  (  1.624913,  0.918953,  0.001929 )     0.35678055
  WF centre and spread   11  ( -0.000181,  1.874889,  0.667560 )     0.94928833
  WF centre and spread   12  (  0.000057,  1.836969,  0.580546 )     0.76171160
  WF centre and spread   13  ( -0.000302,  1.921666,  0.580623 )     0.76161301
  WF centre and spread   14  (  1.624906,  0.939216,  3.270439 )     0.94928969
  WF centre and spread   15  (  1.624668,  0.977137,  3.183422 )     0.76171204
  WF centre and spread   16  (  1.625027,  0.892440,  3.183499 )     0.76161345
  Sum of centres and spreads ( 12.997799, 22.512848, 24.480982 )     8.61299496
 
         Spreads (Ang^2)       Omega I      =     8.337240407
        ================       Omega D      =     0.003678922
                               Omega OD     =     0.272075627
    Final Spread (Ang^2)       Omega Total  =     8.612994957
 ------------------------------------------------------------------------------

 Wannier centres written to file wann_centres.xyz
 Time for wannierise            0.534 (sec)

 Writing checkpoint file wann.chk... done

 *---------------------------------------------------------------------------*
 |                               PLOTTING                                    |
 *---------------------------------------------------------------------------*
 
 
 Calculating interpolated band-structure
 
 Time to calculate interpolated band structure       0.165 (sec)
 
 Time for plotting              0.224 (sec)
 Total Execution Time           0.788 (sec)

 *===========================================================================*
 |                             TIMING INFORMATION                            |
 *===========================================================================*
 |    Tag                                                Ncalls      Time (s)|
 |---------------------------------------------------------------------------|
 |kmesh: get                                        :         1         0.010|
 |overlap: allocate                                 :         1         0.000|
 |overlap: read                                     :         1         0.016|
 |wann: main                                        :         1         0.534|
 |plot: main                                        :         1         0.224|
 *---------------------------------------------------------------------------*
 
 All done: wannier90 exiting
